Formic acid dimer for DeepMD LAMMPS

10 atoms
3 atom types

0.0 30.000000 xlo xhi
0.0 30.000000 ylo yhi
0.0 30.000000 zlo zhi

Masses

1 1.008000 # H
2 12.011000 # C
3 15.999000 # O

Atoms # atomic

1 1 13.1412839538 17.3195800818 15.0130042891
2 2 13.8428013153 16.4490565593 15.0149536722
3 3 14.5111309266 16.1810339659 16.0194167389
4 3 13.8445315425 15.8093972341 13.8761117083
5 1 14.5052089040 15.0085224495 13.9134473323
6 1 15.4956413061 14.9921243897 16.0862936227
7 3 16.1558375987 14.1908479248 16.1237127269
8 2 16.1569880567 13.5507945216 14.9850661151
9 3 15.4892795065 13.8194015048 13.9803842577
10 1 16.8572968902 12.6792413688 14.9876095367
