ITEM: TIMESTEP
0
ITEM: NUMBER OF ATOMS
10
ITEM: BOX BOUNDS pp pp pp
0.0000000000000000e+00 3.0000000000000000e+01
0.0000000000000000e+00 3.0000000000000000e+01
0.0000000000000000e+00 3.0000000000000000e+01
ITEM: ATOMS id type x y z
8 2 16.157 13.5508 14.9851
9 3 15.4893 13.8194 13.9804
10 1 16.8573 12.6792 14.9876
4 3 13.8445 15.8094 13.8761
5 1 14.5052 15.0085 13.9134
6 1 15.4956 14.9921 16.0863
7 3 16.1558 14.1908 16.1237
1 1 13.1413 17.3196 15.013
2 2 13.8428 16.4491 15.015
3 3 14.5111 16.181 16.0194
ITEM: TIMESTEP
100
ITEM: NUMBER OF ATOMS
10
ITEM: BOX BOUNDS pp pp pp
0.0000000000000000e+00 3.0000000000000000e+01
0.0000000000000000e+00 3.0000000000000000e+01
0.0000000000000000e+00 3.0000000000000000e+01
ITEM: ATOMS id type x y z
8 2 16.213 13.56 14.9675
9 3 15.4499 13.7827 14.0109
10 1 17.07 12.8266 14.8823
4 3 13.8208 15.8355 13.8698
5 1 14.4229 15.0021 13.9646
6 1 15.5082 14.9367 16.0071
7 3 16.1881 14.1808 16.1377
1 1 13.3331 17.478 14.9241
2 2 13.8859 16.4997 14.9885
3 3 14.4465 16.1415 16.0283
ITEM: TIMESTEP
200
ITEM: NUMBER OF ATOMS
10
ITEM: BOX BOUNDS pp pp pp
0.0000000000000000e+00 3.0000000000000000e+01
0.0000000000000000e+00 3.0000000000000000e+01
0.0000000000000000e+00 3.0000000000000000e+01
ITEM: ATOMS id type x y z
8 2 16.1729 13.5213 14.9786
9 3 15.4727 13.8312 13.9813
10 1 16.7301 12.5676 15.0279
4 3 13.8758 15.8277 13.8738
5 1 14.5783 15.0861 13.9068
6 1 15.4617 14.9062 15.9912
7 3 16.1703 14.2004 16.1355
1 1 12.9908 17.1929 15.0518
2 2 13.7891 16.418 15.0276
3 3 14.5255 16.2023 16.0057
ITEM: TIMESTEP
300
ITEM: NUMBER OF ATOMS
10
ITEM: BOX BOUNDS pp pp pp
0.0000000000000000e+00 3.0000000000000000e+01
0.0000000000000000e+00 3.0000000000000000e+01
0.0000000000000000e+00 3.0000000000000000e+01
ITEM: ATOMS id type x y z
8 2 16.0709 13.4709 15.0154
9 3 15.5684 13.8731 13.9343
10 1 16.6895 12.52 15.0981
4 3 13.8403 15.7796 13.9004
5 1 14.4998 14.9311 13.8968
6 1 15.5619 15.1235 15.9317
7 3 16.1424 14.2348 16.1169
1 1 13.025 17.2521 15.0658
2 2 13.8207 16.4454 15.0416
3 3 14.5451 16.1868 16.0058
ITEM: TIMESTEP
400
ITEM: NUMBER OF ATOMS
10
ITEM: BOX BOUNDS pp pp pp
0.0000000000000000e+00 3.0000000000000000e+01
0.0000000000000000e+00 3.0000000000000000e+01
0.0000000000000000e+00 3.0000000000000000e+01
ITEM: ATOMS id type x y z
8 2 16.2796 13.6154 14.9119
9 3 15.4429 13.7915 14.0314
10 1 17.1179 12.8994 14.8976
4 3 13.8325 15.7914 13.8823
5 1 14.5439 14.967 13.9098
6 1 15.3072 14.8065 16.1465
7 3 16.1158 14.1152 16.1536
1 1 13.221 17.4321 14.9307
2 2 13.8366 16.5117 15.0199
3 3 14.5102 16.2004 15.9907
ITEM: TIMESTEP
500
ITEM: NUMBER OF ATOMS
10
ITEM: BOX BOUNDS pp pp pp
0.0000000000000000e+00 3.0000000000000000e+01
0.0000000000000000e+00 3.0000000000000000e+01
0.0000000000000000e+00 3.0000000000000000e+01
ITEM: ATOMS id type x y z
8 2 16.1662 13.5051 14.9996
9 3 15.5113 13.8375 14.0093
10 1 16.9667 12.6958 15.0902
4 3 13.7897 15.8109 13.8875
5 1 14.3612 14.8842 13.9899
6 1 15.5142 15.07 16.0262
7 3 16.1649 14.2126 16.0942
1 1 13.3476 17.533 14.9406
2 2 13.8988 16.5353 14.9991
3 3 14.4739 16.0978 16.0066
ITEM: TIMESTEP
600
ITEM: NUMBER OF ATOMS
10
ITEM: BOX BOUNDS pp pp pp
0.0000000000000000e+00 3.0000000000000000e+01
0.0000000000000000e+00 3.0000000000000000e+01
0.0000000000000000e+00 3.0000000000000000e+01
ITEM: ATOMS id type x y z
8 2 16.1241 13.499 14.985
9 3 15.4758 13.8458 14.0049
10 1 16.6789 12.5568 15.1811
4 3 13.9486 15.8353 13.872
5 1 14.7659 15.172 14.0081
6 1 15.4957 15.0028 16.0443
7 3 16.1627 14.198 16.0687
1 1 12.7645 16.902 15.1016
2 2 13.7205 16.3487 15.0692
3 3 14.5487 16.2588 15.9923
ITEM: TIMESTEP
700
ITEM: NUMBER OF ATOMS
10
ITEM: BOX BOUNDS pp pp pp
0.0000000000000000e+00 3.0000000000000000e+01
0.0000000000000000e+00 3.0000000000000000e+01
0.0000000000000000e+00 3.0000000000000000e+01
ITEM: ATOMS id type x y z
8 2 16.1538 13.4976 15.0198
9 3 15.5253 13.8216 13.9915
10 1 16.7964 12.6029 15.2011
4 3 13.8333 15.8262 13.9035
5 1 14.4152 14.9937 14.0756
6 1 15.5253 14.9892 15.977
7 3 16.1516 14.2376 16.0608
1 1 13.1955 17.4413 14.9531
2 2 13.8525 16.5118 15.0065
3 3 14.4898 16.1064 16.0111
ITEM: TIMESTEP
800
ITEM: NUMBER OF ATOMS
10
ITEM: BOX BOUNDS pp pp pp
0.0000000000000000e+00 3.0000000000000000e+01
0.0000000000000000e+00 3.0000000000000000e+01
0.0000000000000000e+00 3.0000000000000000e+01
ITEM: ATOMS id type x y z
8 2 16.2648 13.6277 14.9303
9 3 15.4214 13.8335 14.0661
10 1 17.254 13.0801 14.8181
4 3 13.8321 15.7787 13.9234
5 1 14.5326 15.0201 14.0216
6 1 15.428 14.8198 16.1577
7 3 16.1251 14.0925 16.1241
1 1 13.3693 17.4856 14.7675
2 2 13.8876 16.5221 14.963
3 3 14.4708 16.1578 15.9809
ITEM: TIMESTEP
900
ITEM: NUMBER OF ATOMS
10
ITEM: BOX BOUNDS pp pp pp
0.0000000000000000e+00 3.0000000000000000e+01
0.0000000000000000e+00 3.0000000000000000e+01
0.0000000000000000e+00 3.0000000000000000e+01
ITEM: ATOMS id type x y z
8 2 16.1583 13.4946 15.0003
9 3 15.5822 13.8414 13.9761
10 1 16.6346 12.4985 15.1675
4 3 13.8207 15.8195 13.9479
5 1 14.4017 14.9866 14.0085
6 1 15.4006 15.0838 15.9613
7 3 16.1013 14.2115 16.0865
1 1 13.0367 17.2761 14.9987
2 2 13.8027 16.4545 15.0402
3 3 14.5588 16.176 15.9502
ITEM: TIMESTEP
1000
ITEM: NUMBER OF ATOMS
10
ITEM: BOX BOUNDS pp pp pp
0.0000000000000000e+00 3.0000000000000000e+01
0.0000000000000000e+00 3.0000000000000000e+01
0.0000000000000000e+00 3.0000000000000000e+01
ITEM: ATOMS id type x y z
9 3 15.5196 13.8825 13.9779
4 3 13.9072 15.7986 13.934
5 1 14.7135 15.1894 13.9506
8 2 16.0684 13.4616 15.0054
10 1 16.7408 12.5142 15.0188
7 3 16.1729 14.2024 16.0962
1 1 12.8375 17.0268 15.0511
2 2 13.7606 16.3971 15.0284
3 3 14.5377 16.2321 15.9694
6 1 15.5747 15.1275 15.9278
ITEM: TIMESTEP
1100
ITEM: NUMBER OF ATOMS
10
ITEM: BOX BOUNDS pp pp pp
0.0000000000000000e+00 3.0000000000000000e+01
0.0000000000000000e+00 3.0000000000000000e+01
0.0000000000000000e+00 3.0000000000000000e+01
ITEM: ATOMS id type x y z
9 3 15.4196 13.7519 14.0378
4 3 13.8589 15.8599 13.8959
5 1 14.3255 14.9788 13.962
8 2 16.262 13.5983 14.9541
10 1 16.9872 12.7724 14.9323
7 3 16.1552 14.2219 16.1243
1 1 13.3814 17.498 14.9757
2 2 13.8688 16.4975 15.0022
3 3 14.4685 16.0851 15.9842
6 1 15.3082 14.9066 15.9755
ITEM: TIMESTEP
1200
ITEM: NUMBER OF ATOMS
10
ITEM: BOX BOUNDS pp pp pp
0.0000000000000000e+00 3.0000000000000000e+01
0.0000000000000000e+00 3.0000000000000000e+01
0.0000000000000000e+00 3.0000000000000000e+01
ITEM: ATOMS id type x y z
9 3 15.4626 13.8065 14.0245
4 3 13.8412 15.8035 13.9112
5 1 14.5083 15.0189 13.8831
8 2 16.1999 13.5135 14.9637
10 1 17.0635 12.7607 14.8068
7 3 16.2111 14.1677 16.1181
1 1 13.2717 17.4813 14.9575
2 2 13.8907 16.5494 14.9697
3 3 14.395 16.1627 16.0163
6 1 15.5156 14.9436 16.0264
ITEM: TIMESTEP
1300
ITEM: NUMBER OF ATOMS
10
ITEM: BOX BOUNDS pp pp pp
0.0000000000000000e+00 3.0000000000000000e+01
0.0000000000000000e+00 3.0000000000000000e+01
0.0000000000000000e+00 3.0000000000000000e+01
ITEM: ATOMS id type x y z
9 3 15.546 13.8414 13.9765
4 3 13.8659 15.8385 13.8751
5 1 14.5625 15.0252 13.8283
8 2 16.1311 13.5176 15.004
10 1 16.6437 12.5552 15.0472
7 3 16.1324 14.1858 16.1194
1 1 12.9735 17.1756 15.2079
2 2 13.7418 16.3669 15.0757
3 3 14.5697 16.2345 15.9621
6 1 15.5363 15.0383 16.0232
ITEM: TIMESTEP
1400
ITEM: NUMBER OF ATOMS
10
ITEM: BOX BOUNDS pp pp pp
0.0000000000000000e+00 3.0000000000000000e+01
0.0000000000000000e+00 3.0000000000000000e+01
0.0000000000000000e+00 3.0000000000000000e+01
ITEM: ATOMS id type x y z
9 3 15.542 13.8698 13.9729
4 3 13.8103 15.7646 13.8924
5 1 14.5284 14.9923 13.9662
8 2 16.1253 13.5407 15.0079
10 1 16.7524 12.5894 14.9653
7 3 16.1549 14.1693 16.1136
1 1 13.1105 17.3007 15.1132
2 2 13.8698 16.4856 14.9898
3 3 14.5053 16.188 16.0141
6 1 15.4775 14.9438 16.087
ITEM: TIMESTEP
1500
ITEM: NUMBER OF ATOMS
10
ITEM: BOX BOUNDS pp pp pp
0.0000000000000000e+00 3.0000000000000000e+01
0.0000000000000000e+00 3.0000000000000000e+01
0.0000000000000000e+00 3.0000000000000000e+01
ITEM: ATOMS id type x y z
9 3 15.4709 13.7378 14.0175
4 3 13.8222 15.832 13.8539
5 1 14.4372 15.0381 14.0311
8 2 16.2385 13.6242 14.9609
10 1 17.1168 12.99 14.8097
7 3 16.1402 14.1316 16.1251
1 1 13.4114 17.5088 14.9784
2 2 13.8405 16.4872 15.0082
3 3 14.4821 16.1844 16.0297
6 1 15.4443 14.9581 16.1263
ITEM: TIMESTEP
1600
ITEM: NUMBER OF ATOMS
10
ITEM: BOX BOUNDS pp pp pp
0.0000000000000000e+00 3.0000000000000000e+01
0.0000000000000000e+00 3.0000000000000000e+01
0.0000000000000000e+00 3.0000000000000000e+01
ITEM: ATOMS id type x y z
9 3 15.4999 13.8203 13.9827
4 3 13.8436 15.8121 13.8468
5 1 14.5679 15.0764 14.003
8 2 16.1134 13.5475 15.0112
10 1 16.6739 12.5472 14.9739
7 3 16.1985 14.2217 16.0996
1 1 13.0969 17.2482 15.0802
2 2 13.8673 16.4544 15.0078
3 3 14.4845 16.1495 16.0449
6 1 15.4786 15.0582 16.1232
ITEM: TIMESTEP
1700
ITEM: NUMBER OF ATOMS
10
ITEM: BOX BOUNDS pp pp pp
0.0000000000000000e+00 3.0000000000000000e+01
0.0000000000000000e+00 3.0000000000000000e+01
0.0000000000000000e+00 3.0000000000000000e+01
ITEM: ATOMS id type x y z
9 3 15.5171 13.804 13.9701
4 3 13.8836 15.8716 13.8287
5 1 14.5158 15.0665 13.9202
8 2 16.1051 13.5117 15.009
10 1 16.6608 12.5649 14.9575
7 3 16.1886 14.1992 16.1176
1 1 12.9142 17.0636 15.1324
2 2 13.7589 16.349 15.063
3 3 14.5327 16.2411 16.0209
6 1 15.6043 15.1334 16.1228
ITEM: TIMESTEP
1800
ITEM: NUMBER OF ATOMS
10
ITEM: BOX BOUNDS pp pp pp
0.0000000000000000e+00 3.0000000000000000e+01
0.0000000000000000e+00 3.0000000000000000e+01
0.0000000000000000e+00 3.0000000000000000e+01
ITEM: ATOMS id type x y z
9 3 15.5159 13.7734 13.9823
4 3 13.758 15.8254 13.8759
5 1 14.5031 15.0399 13.8302
8 2 16.2111 13.5708 14.9659
10 1 16.9328 12.6931 14.8772
7 3 16.1529 14.1733 16.1441
1 1 13.3569 17.4738 14.9315
2 2 13.9226 16.5011 14.986
3 3 14.4571 16.1628 16.0416
6 1 15.4672 14.9789 16.2329
ITEM: TIMESTEP
1900
ITEM: NUMBER OF ATOMS
10
ITEM: BOX BOUNDS pp pp pp
0.0000000000000000e+00 3.0000000000000000e+01
0.0000000000000000e+00 3.0000000000000000e+01
0.0000000000000000e+00 3.0000000000000000e+01
ITEM: ATOMS id type x y z
9 3 15.4739 13.8364 13.9734
4 3 13.8217 15.7792 13.8721
5 1 14.326 14.8176 13.9263
8 2 16.1876 13.6216 14.9455
10 1 17.0762 12.9663 14.7801
7 3 16.1198 14.1348 16.1789
1 1 13.3236 17.4038 14.8659
2 2 13.9047 16.441 14.999
3 3 14.5064 16.1999 16.0282
6 1 15.4258 14.8639 16.2495
ITEM: TIMESTEP
2000
ITEM: NUMBER OF ATOMS
10
ITEM: BOX BOUNDS pp pp pp
0.0000000000000000e+00 3.0000000000000000e+01
0.0000000000000000e+00 3.0000000000000000e+01
0.0000000000000000e+00 3.0000000000000000e+01
ITEM: ATOMS id type x y z
9 3 15.5802 13.8029 13.9054
4 3 13.8034 15.8473 13.8752
5 1 14.5718 15.1846 13.7005
8 2 16.0988 13.5095 15.0183
10 1 16.5038 12.4818 15.1816
7 3 16.1752 14.2018 16.1523
1 1 12.9628 17.1342 15.0453
2 2 13.803 16.3932 15.0462
3 3 14.537 16.2304 16.0209
6 1 15.6179 15.0605 16.0314
ITEM: TIMESTEP
2100
ITEM: NUMBER OF ATOMS
10
ITEM: BOX BOUNDS pp pp pp
0.0000000000000000e+00 3.0000000000000000e+01
0.0000000000000000e+00 3.0000000000000000e+01
0.0000000000000000e+00 3.0000000000000000e+01
ITEM: ATOMS id type x y z
9 3 15.4797 13.8141 13.9612
4 3 13.8685 15.8473 13.8562
5 1 14.3537 14.9832 13.8218
8 2 16.1112 13.5404 14.9928
10 1 16.825 12.6325 15.0518
7 3 16.2525 14.1704 16.1473
1 1 12.9906 17.1587 14.9643
2 2 13.8216 16.4227 15.0065
3 3 14.4747 16.2152 16.037
6 1 15.4452 14.9254 16.1395
ITEM: TIMESTEP
2200
ITEM: NUMBER OF ATOMS
10
ITEM: BOX BOUNDS pp pp pp
0.0000000000000000e+00 3.0000000000000000e+01
0.0000000000000000e+00 3.0000000000000000e+01
0.0000000000000000e+00 3.0000000000000000e+01
ITEM: ATOMS id type x y z
9 3 15.4199 13.7253 13.9884
4 3 13.8402 15.8447 13.8511
5 1 14.4451 15.0989 13.6795
8 2 16.186 13.6609 14.9683
10 1 17.0492 12.9707 15.0067
7 3 16.1683 14.2082 16.1425
1 1 13.4707 17.4692 14.9022
2 2 13.9194 16.4536 15.0083
3 3 14.4599 16.0965 16.0517
6 1 15.5618 15.0934 16.1507
ITEM: TIMESTEP
2300
ITEM: NUMBER OF ATOMS
10
ITEM: BOX BOUNDS pp pp pp
0.0000000000000000e+00 3.0000000000000000e+01
0.0000000000000000e+00 3.0000000000000000e+01
0.0000000000000000e+00 3.0000000000000000e+01
ITEM: ATOMS id type x y z
9 3 15.515 13.8196 13.9481
4 3 13.8408 15.7845 13.8592
5 1 14.3528 14.9027 13.8204
8 2 16.1244 13.5408 14.9747
10 1 16.8925 12.6854 15.0792
7 3 16.218 14.1394 16.1343
1 1 13.0895 17.2985 14.9329
2 2 13.8452 16.4862 15.0098
3 3 14.4596 16.2545 16.0619
6 1 15.5045 14.8316 16.2929
ITEM: TIMESTEP
2400
ITEM: NUMBER OF ATOMS
10
ITEM: BOX BOUNDS pp pp pp
0.0000000000000000e+00 3.0000000000000000e+01
0.0000000000000000e+00 3.0000000000000000e+01
0.0000000000000000e+00 3.0000000000000000e+01
ITEM: ATOMS id type x y z
9 3 15.5723 13.8427 13.9321
4 3 13.7814 15.8401 13.8176
5 1 14.579 15.1483 13.7313
8 2 16.1276 13.5381 14.9941
10 1 16.6147 12.5805 15.1983
7 3 16.1361 14.1388 16.1803
1 1 12.8628 17.06 15.1574
2 2 13.7688 16.3698 15.0791
3 3 14.6016 16.2571 16.0006
6 1 15.738 15.07 16.1367
ITEM: TIMESTEP
2500
ITEM: NUMBER OF ATOMS
10
ITEM: BOX BOUNDS pp pp pp
0.0000000000000000e+00 3.0000000000000000e+01
0.0000000000000000e+00 3.0000000000000000e+01
0.0000000000000000e+00 3.0000000000000000e+01
ITEM: ATOMS id type x y z
9 3 15.5004 13.8661 13.9458
4 3 13.785 15.7707 13.8431
5 1 14.4479 14.9206 13.942
8 2 16.1369 13.5615 14.9765
10 1 16.9681 12.7837 15.0093
7 3 16.1746 14.1697 16.1621
1 1 13.3451 17.4201 14.8651
2 2 13.9122 16.4628 14.9982
3 3 14.4944 16.1769 16.0646
6 1 15.387 14.8582 16.2306
ITEM: TIMESTEP
2600
ITEM: NUMBER OF ATOMS
10
ITEM: BOX BOUNDS pp pp pp
0.0000000000000000e+00 3.0000000000000000e+01
0.0000000000000000e+00 3.0000000000000000e+01
0.0000000000000000e+00 3.0000000000000000e+01
ITEM: ATOMS id type x y z
9 3 15.4458 13.7067 13.9711
4 3 13.8472 15.8378 13.8386
5 1 14.4763 15.0276 13.9312
8 2 16.2419 13.6359 14.9254
10 1 17.0851 12.916 14.9694
7 3 16.1222 14.1814 16.146
1 1 13.2197 17.3716 14.9489
2 2 13.8907 16.4649 15.0119
3 3 14.4666 16.177 16.0944
6 1 15.5228 15.0334 16.0991
ITEM: TIMESTEP
2700
ITEM: NUMBER OF ATOMS
10
ITEM: BOX BOUNDS pp pp pp
0.0000000000000000e+00 3.0000000000000000e+01
0.0000000000000000e+00 3.0000000000000000e+01
0.0000000000000000e+00 3.0000000000000000e+01
ITEM: ATOMS id type x y z
9 3 15.5078 13.8557 13.9539
4 3 13.8664 15.8343 13.8271
5 1 14.552 15.1273 13.8696
8 2 16.0439 13.486 15.0214
10 1 16.6351 12.5282 15.0884
7 3 16.2511 14.237 16.1181
1 1 13.0833 17.2293 15.0174
2 2 13.8088 16.3845 15.0316
3 3 14.4967 16.1789 16.0534
6 1 15.5576 14.9872 16.1423
ITEM: TIMESTEP
2800
ITEM: NUMBER OF ATOMS
10
ITEM: BOX BOUNDS pp pp pp
0.0000000000000000e+00 3.0000000000000000e+01
0.0000000000000000e+00 3.0000000000000000e+01
0.0000000000000000e+00 3.0000000000000000e+01
ITEM: ATOMS id type x y z
9 3 15.4784 13.8118 13.9726
4 3 13.845 15.8492 13.8458
5 1 14.4263 15.0302 13.8565
8 2 16.2001 13.5498 14.9676
10 1 16.8099 12.6069 15.0173
7 3 16.1447 14.1836 16.1602
1 1 12.9409 17.101 15.1342
2 2 13.8174 16.4169 15.0319
3 3 14.5366 16.1928 16.0158
6 1 15.5491 15.0738 16.0811
ITEM: TIMESTEP
2900
ITEM: NUMBER OF ATOMS
10
ITEM: BOX BOUNDS pp pp pp
0.0000000000000000e+00 3.0000000000000000e+01
0.0000000000000000e+00 3.0000000000000000e+01
0.0000000000000000e+00 3.0000000000000000e+01
ITEM: ATOMS id type x y z
9 3 15.5079 13.8202 13.9517
4 3 13.796 15.7587 13.9177
5 1 14.4174 14.9735 13.8884
8 2 16.1896 13.5479 14.95
10 1 17.0889 12.8616 14.8752
7 3 16.1332 14.1794 16.1472
1 1 13.5687 17.5387 14.8352
2 2 13.9196 16.4971 14.9847
3 3 14.4568 16.1893 16.0487
6 1 15.3175 14.9289 16.1362
ITEM: TIMESTEP
3000
ITEM: NUMBER OF ATOMS
10
ITEM: BOX BOUNDS pp pp pp
0.0000000000000000e+00 3.0000000000000000e+01
0.0000000000000000e+00 3.0000000000000000e+01
0.0000000000000000e+00 3.0000000000000000e+01
ITEM: ATOMS id type x y z
9 3 15.483 13.8293 13.9735
8 2 16.1996 13.5893 14.9694
10 1 16.8663 12.668 14.9845
4 3 13.8481 15.8112 13.8847
5 1 14.4864 15.0045 13.8642
7 3 16.1061 14.1655 16.1525
1 1 13.0248 17.1846 15.1377
2 2 13.8327 16.4262 15.0252
3 3 14.5467 16.1852 15.9886
6 1 15.502 15.105 16.0826
ITEM: TIMESTEP
3100
ITEM: NUMBER OF ATOMS
10
ITEM: BOX BOUNDS pp pp pp
0.0000000000000000e+00 3.0000000000000000e+01
0.0000000000000000e+00 3.0000000000000000e+01
0.0000000000000000e+00 3.0000000000000000e+01
ITEM: ATOMS id type x y z
9 3 15.5547 13.8551 13.9748
8 2 16.046 13.474 15.0312
10 1 16.5662 12.4834 15.1136
4 3 13.8654 15.8389 13.8753
5 1 14.5508 15.0884 13.9029
7 3 16.2526 14.2023 16.0879
1 1 13.0221 17.2384 15.1243
2 2 13.7753 16.4257 15.0273
3 3 14.483 16.1938 16.0029
6 1 15.5304 14.9636 16.0959
ITEM: TIMESTEP
3200
ITEM: NUMBER OF ATOMS
10
ITEM: BOX BOUNDS pp pp pp
0.0000000000000000e+00 3.0000000000000000e+01
0.0000000000000000e+00 3.0000000000000000e+01
0.0000000000000000e+00 3.0000000000000000e+01
ITEM: ATOMS id type x y z
9 3 15.4136 13.7471 14.0313
8 2 16.2309 13.6076 14.9625
10 1 17.0532 12.8086 14.9328
4 3 13.9083 15.843 13.8756
5 1 14.5568 15.0871 13.9825
7 3 16.1596 14.1894 16.0907
1 1 13.2098 17.3993 15.0931
2 2 13.8329 16.4776 15.0002
3 3 14.4455 16.1392 16.0322
6 1 15.5899 14.9882 15.9584
ITEM: TIMESTEP
3300
ITEM: NUMBER OF ATOMS
10
ITEM: BOX BOUNDS pp pp pp
0.0000000000000000e+00 3.0000000000000000e+01
0.0000000000000000e+00 3.0000000000000000e+01
0.0000000000000000e+00 3.0000000000000000e+01
ITEM: ATOMS id type x y z
9 3 15.4605 13.7996 14.0195
8 2 16.206 13.5826 14.986
10 1 17.0351 12.8759 14.9046
4 3 13.8419 15.8044 13.888
5 1 14.3764 14.9466 14.1015
7 3 16.1482 14.2044 16.0883
1 1 13.3922 17.4954 15.0555
2 2 13.9153 16.5132 14.9789
3 3 14.4555 16.1125 16.0244
6 1 15.2528 14.8038 16.0304
ITEM: TIMESTEP
3400
ITEM: NUMBER OF ATOMS
10
ITEM: BOX BOUNDS pp pp pp
0.0000000000000000e+00 3.0000000000000000e+01
0.0000000000000000e+00 3.0000000000000000e+01
0.0000000000000000e+00 3.0000000000000000e+01
ITEM: ATOMS id type x y z
9 3 15.5785 13.896 13.9907
8 2 16.1273 13.4932 15.0034
10 1 16.6432 12.4498 15.0042
4 3 13.8263 15.7833 13.9062
5 1 14.7304 15.1539 13.9366
7 3 16.1248 14.1304 16.1069
1 1 12.9928 17.2112 15.1656
2 2 13.7518 16.4164 15.0386
3 3 14.558 16.2611 15.9643
6 1 15.6938 15.1451 15.8936
ITEM: TIMESTEP
3500
ITEM: NUMBER OF ATOMS
10
ITEM: BOX BOUNDS pp pp pp
0.0000000000000000e+00 3.0000000000000000e+01
0.0000000000000000e+00 3.0000000000000000e+01
0.0000000000000000e+00 3.0000000000000000e+01
ITEM: ATOMS id type x y z
9 3 15.5664 13.8705 14.0025
8 2 16.1603 13.509 15.0007
10 1 16.8011 12.6377 14.9513
4 3 13.8335 15.8146 13.912
5 1 14.4658 14.9002 13.9204
7 3 16.0966 14.1773 16.094
1 1 12.982 17.1962 15.2135
2 2 13.7974 16.4298 15.0403
3 3 14.5663 16.2084 15.9507
6 1 15.2671 14.8792 16.0697
ITEM: TIMESTEP
3600
ITEM: NUMBER OF ATOMS
10
ITEM: BOX BOUNDS pp pp pp
0.0000000000000000e+00 3.0000000000000000e+01
0.0000000000000000e+00 3.0000000000000000e+01
0.0000000000000000e+00 3.0000000000000000e+01
ITEM: ATOMS id type x y z
9 3 15.4485 13.8113 14.0473
8 2 16.2263 13.5805 14.9538
10 1 16.9946 12.737 14.76
4 3 13.8651 15.7851 13.9337
5 1 14.4131 14.9803 13.8801
7 3 16.1521 14.1891 16.0764
1 1 13.5595 17.5482 14.889
2 2 13.9366 16.5164 14.9655
3 3 14.3783 16.1228 16.0296
6 1 15.5771 15.0449 16.0462
ITEM: TIMESTEP
3700
ITEM: NUMBER OF ATOMS
10
ITEM: BOX BOUNDS pp pp pp
0.0000000000000000e+00 3.0000000000000000e+01
0.0000000000000000e+00 3.0000000000000000e+01
0.0000000000000000e+00 3.0000000000000000e+01
ITEM: ATOMS id type x y z
9 3 15.45 13.7149 14.0502
8 2 16.2309 13.545 14.9889
10 1 17.0244 12.7895 14.8499
4 3 13.9126 15.9273 13.869
5 1 14.4731 15.1345 13.8687
7 3 16.161 14.2208 16.0752
1 1 12.9764 17.2619 15.1372
2 2 13.7709 16.4495 15.0392
3 3 14.4865 16.1402 15.9908
6 1 15.3535 14.8369 16.0394
ITEM: TIMESTEP
3800
ITEM: NUMBER OF ATOMS
10
ITEM: BOX BOUNDS pp pp pp
0.0000000000000000e+00 3.0000000000000000e+01
0.0000000000000000e+00 3.0000000000000000e+01
0.0000000000000000e+00 3.0000000000000000e+01
ITEM: ATOMS id type x y z
9 3 15.5409 13.8999 13.996
8 2 16.0425 13.4972 15.0361
10 1 16.3412 12.4236 15.0758
4 3 13.8793 15.8003 13.8814
5 1 14.6166 15.0687 14.0079
7 3 16.2429 14.2003 16.0774
1 1 12.9687 17.2059 15.04
2 2 13.7914 16.4461 15.0185
3 3 14.4851 16.16 16.0029
6 1 15.7099 15.0251 15.8905
ITEM: TIMESTEP
3900
ITEM: NUMBER OF ATOMS
10
ITEM: BOX BOUNDS pp pp pp
0.0000000000000000e+00 3.0000000000000000e+01
0.0000000000000000e+00 3.0000000000000000e+01
0.0000000000000000e+00 3.0000000000000000e+01
ITEM: ATOMS id type x y z
9 3 15.5124 13.7791 13.9865
8 2 16.2138 13.6101 14.9919
10 1 17.0865 12.9271 14.9146
4 3 13.8327 15.8121 13.8947
5 1 14.5451 15.0277 14.0194
7 3 16.0764 14.1456 16.11
1 1 13.1284 17.4062 15.0263
2 2 13.7953 16.4743 15.0395
3 3 14.5659 16.1848 15.988
6 1 15.3413 14.8844 15.9907
ITEM: TIMESTEP
4000
ITEM: NUMBER OF ATOMS
10
ITEM: BOX BOUNDS pp pp pp
0.0000000000000000e+00 3.0000000000000000e+01
0.0000000000000000e+00 3.0000000000000000e+01
0.0000000000000000e+00 3.0000000000000000e+01
ITEM: ATOMS id type x y z
5 1 14.3706 14.9336 14.0622
9 3 15.5294 13.837 13.9958
8 2 16.2026 13.5805 14.9649
10 1 16.9541 12.7485 14.9185
4 3 13.7803 15.7448 13.913
1 1 13.3527 17.5351 14.8552
2 2 13.9146 16.581 14.974
7 3 16.1449 14.1062 16.1163
6 1 15.508 14.9035 16.1025
3 3 14.4463 16.1838 16.0243
ITEM: TIMESTEP
4100
ITEM: NUMBER OF ATOMS
10
ITEM: BOX BOUNDS pp pp pp
0.0000000000000000e+00 3.0000000000000000e+01
0.0000000000000000e+00 3.0000000000000000e+01
0.0000000000000000e+00 3.0000000000000000e+01
ITEM: ATOMS id type x y z
5 1 14.5747 15.1154 13.82
9 3 15.5099 13.8358 13.9982
8 2 16.1278 13.5318 15.0131
10 1 16.7804 12.6153 14.9929
4 3 13.8737 15.8487 13.8472
1 1 12.9751 17.2385 15.0971
2 2 13.7448 16.4141 15.0729
7 3 16.1584 14.1934 16.1108
6 1 15.5142 15.0177 16.1196
3 3 14.5641 16.1641 15.977
ITEM: TIMESTEP
4200
ITEM: NUMBER OF ATOMS
10
ITEM: BOX BOUNDS pp pp pp
0.0000000000000000e+00 3.0000000000000000e+01
0.0000000000000000e+00 3.0000000000000000e+01
0.0000000000000000e+00 3.0000000000000000e+01
ITEM: ATOMS id type x y z
5 1 14.5603 15.0544 13.8937
9 3 15.4846 13.8158 13.9918
8 2 16.1243 13.5114 14.9884
10 1 16.6788 12.5359 15.0095
4 3 13.9097 15.8182 13.8715
1 1 12.9656 17.1917 14.9755
2 2 13.8024 16.4707 15.0359
7 3 16.2053 14.2235 16.0878
6 1 15.6053 15.0444 16.0337
3 3 14.4679 16.1674 16.0357
ITEM: TIMESTEP
4300
ITEM: NUMBER OF ATOMS
10
ITEM: BOX BOUNDS pp pp pp
0.0000000000000000e+00 3.0000000000000000e+01
0.0000000000000000e+00 3.0000000000000000e+01
0.0000000000000000e+00 3.0000000000000000e+01
ITEM: ATOMS id type x y z
5 1 14.4057 14.9817 13.9362
9 3 15.451 13.7658 13.9982
8 2 16.2223 13.5789 14.9668
10 1 17.0635 12.8439 14.8473
4 3 13.8497 15.8303 13.8803
1 1 13.3362 17.482 14.8212
2 2 13.8743 16.5011 14.9978
7 3 16.1498 14.204 16.1196
6 1 15.4112 14.872 16.0437
3 3 14.4639 16.1291 16.0502
ITEM: TIMESTEP
4400
ITEM: NUMBER OF ATOMS
10
ITEM: BOX BOUNDS pp pp pp
0.0000000000000000e+00 3.0000000000000000e+01
0.0000000000000000e+00 3.0000000000000000e+01
0.0000000000000000e+00 3.0000000000000000e+01
ITEM: ATOMS id type x y z
5 1 14.5854 15.0435 13.8806
9 3 15.4964 13.8744 13.9811
8 2 16.1799 13.5701 14.9739
10 1 16.877 12.7027 14.9296
4 3 13.8027 15.7856 13.8911
1 1 13.1248 17.2658 14.8685
2 2 13.8584 16.4404 15.0108
7 3 16.1154 14.1463 16.1617
6 1 15.4872 15.0422 15.9769
3 3 14.5528 16.1829 15.999
ITEM: TIMESTEP
4500
ITEM: NUMBER OF ATOMS
10
ITEM: BOX BOUNDS pp pp pp
0.0000000000000000e+00 3.0000000000000000e+01
0.0000000000000000e+00 3.0000000000000000e+01
0.0000000000000000e+00 3.0000000000000000e+01
ITEM: ATOMS id type x y z
5 1 14.3886 14.9106 13.8391
9 3 15.6171 13.8627 13.9099
8 2 16.0736 13.4837 15.0116
10 1 16.5857 12.474 15.0884
4 3 13.8164 15.806 13.9029
1 1 12.9085 17.0813 15.0066
2 2 13.7932 16.401 15.048
7 3 16.1282 14.1964 16.1317
6 1 15.4276 15.0094 16.0771
3 3 14.5822 16.2551 16.0098
ITEM: TIMESTEP
4600
ITEM: NUMBER OF ATOMS
10
ITEM: BOX BOUNDS pp pp pp
0.0000000000000000e+00 3.0000000000000000e+01
0.0000000000000000e+00 3.0000000000000000e+01
0.0000000000000000e+00 3.0000000000000000e+01
ITEM: ATOMS id type x y z
5 1 14.5307 15.1055 13.7175
9 3 15.4343 13.7964 13.9924
8 2 16.2111 13.597 14.9335
10 1 16.9459 12.7749 14.8732
4 3 13.8703 15.8153 13.8641
1 1 13.1764 17.3367 14.8523
2 2 13.8611 16.4463 15.0156
7 3 16.1588 14.1765 16.1606
6 1 15.5694 14.9682 16.1463
3 3 14.469 16.1682 16.0466
ITEM: TIMESTEP
4700
ITEM: NUMBER OF ATOMS
10
ITEM: BOX BOUNDS pp pp pp
0.0000000000000000e+00 3.0000000000000000e+01
0.0000000000000000e+00 3.0000000000000000e+01
0.0000000000000000e+00 3.0000000000000000e+01
ITEM: ATOMS id type x y z
5 1 14.3113 14.95 13.7923
9 3 15.4233 13.7705 14.0025
8 2 16.1738 13.5499 14.9695
10 1 17.0473 12.8368 14.8689
4 3 13.836 15.8695 13.824
1 1 13.4514 17.4779 14.8587
2 2 13.9327 16.4935 15.0008
7 3 16.2495 14.2299 16.1488
6 1 15.534 14.8675 16.176
3 3 14.3901 16.0898 16.0658
ITEM: TIMESTEP
4800
ITEM: NUMBER OF ATOMS
10
ITEM: BOX BOUNDS pp pp pp
0.0000000000000000e+00 3.0000000000000000e+01
0.0000000000000000e+00 3.0000000000000000e+01
0.0000000000000000e+00 3.0000000000000000e+01
ITEM: ATOMS id type x y z
5 1 14.5264 15.1674 13.7776
9 3 15.4879 13.7415 13.9508
8 2 16.1623 13.5317 14.9806
10 1 16.7139 12.594 15.1443
4 3 13.8739 15.9085 13.8088
1 1 12.812 17.0573 15.0899
2 2 13.7567 16.376 15.0669
7 3 16.2003 14.189 16.1539
6 1 15.596 15.0352 16.0086
3 3 14.5214 16.2401 16.0493
ITEM: TIMESTEP
4900
ITEM: NUMBER OF ATOMS
10
ITEM: BOX BOUNDS pp pp pp
0.0000000000000000e+00 3.0000000000000000e+01
0.0000000000000000e+00 3.0000000000000000e+01
0.0000000000000000e+00 3.0000000000000000e+01
ITEM: ATOMS id type x y z
5 1 14.5191 14.98 13.9022
9 3 15.5564 13.8667 13.9126
8 2 16.0451 13.544 15.0111
10 1 16.702 12.6023 15.1372
4 3 13.8063 15.76 13.8585
1 1 13.1447 17.241 14.9874
2 2 13.8601 16.4396 15.02
7 3 16.1939 14.1805 16.1396
6 1 15.46 14.9533 16.134
3 3 14.526 16.2196 16.0555
ITEM: TIMESTEP
5000
ITEM: NUMBER OF ATOMS
10
ITEM: BOX BOUNDS pp pp pp
0.0000000000000000e+00 3.0000000000000000e+01
0.0000000000000000e+00 3.0000000000000000e+01
0.0000000000000000e+00 3.0000000000000000e+01
ITEM: ATOMS id type x y z
5 1 14.3909 14.9782 13.8952
9 3 15.4866 13.7575 13.9684
8 2 16.2342 13.6824 14.9498
10 1 17.0887 13.0078 14.9677
4 3 13.7608 15.8092 13.8405
1 1 13.3053 17.5023 14.9843
7 3 16.1074 14.0898 16.1856
6 1 15.511 14.9761 16.2356
2 2 13.8816 16.4765 15.0098
3 3 14.5402 16.1956 16.0304
ITEM: TIMESTEP
5100
ITEM: NUMBER OF ATOMS
10
ITEM: BOX BOUNDS pp pp pp
0.0000000000000000e+00 3.0000000000000000e+01
0.0000000000000000e+00 3.0000000000000000e+01
0.0000000000000000e+00 3.0000000000000000e+01
ITEM: ATOMS id type x y z
5 1 14.4938 14.9902 13.8345
9 3 15.5261 13.8256 13.9482
8 2 16.1164 13.5165 14.9814
10 1 16.8978 12.657 14.9783
4 3 13.7981 15.7913 13.8537
1 1 13.2326 17.3919 14.9644
7 3 16.2193 14.1607 16.1492
6 1 15.5123 14.914 16.2666
2 2 13.8748 16.4971 15.0017
3 3 14.4552 16.2158 16.0585
ITEM: TIMESTEP
5200
ITEM: NUMBER OF ATOMS
10
ITEM: BOX BOUNDS pp pp pp
0.0000000000000000e+00 3.0000000000000000e+01
0.0000000000000000e+00 3.0000000000000000e+01
0.0000000000000000e+00 3.0000000000000000e+01
ITEM: ATOMS id type x y z
5 1 14.5045 15.0414 13.7258
9 3 15.4734 13.7908 13.957
8 2 16.1149 13.5484 14.9938
10 1 16.5924 12.5768 15.096
4 3 13.903 15.8806 13.8284
1 1 12.9424 17.0616 15.1721
7 3 16.167 14.2455 16.1363
6 1 15.6571 15.1929 16.0865
2 2 13.8039 16.3262 15.0662
3 3 14.5373 16.1858 16.0277
ITEM: TIMESTEP
5300
ITEM: NUMBER OF ATOMS
10
ITEM: BOX BOUNDS pp pp pp
0.0000000000000000e+00 3.0000000000000000e+01
0.0000000000000000e+00 3.0000000000000000e+01
0.0000000000000000e+00 3.0000000000000000e+01
ITEM: ATOMS id type x y z
5 1 14.5237 15.0731 13.831
9 3 15.4695 13.8 13.9832
8 2 16.1443 13.5222 14.9806
10 1 16.9208 12.6614 14.9173
4 3 13.8441 15.8315 13.863
1 1 13.2123 17.3759 14.9543
7 3 16.2379 14.1949 16.1255
6 1 15.4755 14.892 16.2051
2 2 13.887 16.4657 14.9828
3 3 14.4173 16.1831 16.0612
ITEM: TIMESTEP
5400
ITEM: NUMBER OF ATOMS
10
ITEM: BOX BOUNDS pp pp pp
0.0000000000000000e+00 3.0000000000000000e+01
0.0000000000000000e+00 3.0000000000000000e+01
0.0000000000000000e+00 3.0000000000000000e+01
ITEM: ATOMS id type x y z
5 1 14.3298 14.9375 13.9762
9 3 15.4806 13.775 13.9883
8 2 16.238 13.5997 14.9607
10 1 17.0347 12.8621 14.9177
4 3 13.7849 15.8443 13.857
1 1 13.3925 17.4569 14.9465
7 3 16.142 14.1386 16.1599
6 1 15.5418 14.9723 16.0952
2 2 13.8814 16.4623 14.9952
3 3 14.4847 16.1816 16.0317
ITEM: TIMESTEP
5500
ITEM: NUMBER OF ATOMS
10
ITEM: BOX BOUNDS pp pp pp
0.0000000000000000e+00 3.0000000000000000e+01
0.0000000000000000e+00 3.0000000000000000e+01
0.0000000000000000e+00 3.0000000000000000e+01
ITEM: ATOMS id type x y z
5 1 14.6168 15.0996 13.9273
9 3 15.5341 13.888 13.9459
8 2 16.0994 13.5418 15.003
10 1 16.7411 12.5916 15.0193
4 3 13.8115 15.762 13.8746
1 1 12.9964 17.1542 15.1459
7 3 16.1279 14.1736 16.1409
6 1 15.4397 14.9355 16.0805
2 2 13.8542 16.3956 15.0135
3 3 14.5748 16.2378 16.0149
ITEM: TIMESTEP
5600
ITEM: NUMBER OF ATOMS
10
ITEM: BOX BOUNDS pp pp pp
0.0000000000000000e+00 3.0000000000000000e+01
0.0000000000000000e+00 3.0000000000000000e+01
0.0000000000000000e+00 3.0000000000000000e+01
ITEM: ATOMS id type x y z
5 1 14.3848 15.0379 13.9254
9 3 15.5797 13.7903 13.9481
8 2 16.1361 13.4975 15.0056
10 1 16.6909 12.5476 15.1317
4 3 13.8167 15.8513 13.8586
1 1 13.1264 17.2718 15.1433
7 3 16.1637 14.184 16.1133
6 1 15.6326 15.0314 16.037
2 2 13.7809 16.4353 15.0493
3 3 14.5132 16.2324 16.0235
ITEM: TIMESTEP
5700
ITEM: NUMBER OF ATOMS
10
ITEM: BOX BOUNDS pp pp pp
0.0000000000000000e+00 3.0000000000000000e+01
0.0000000000000000e+00 3.0000000000000000e+01
0.0000000000000000e+00 3.0000000000000000e+01
ITEM: ATOMS id type x y z
5 1 14.5658 15.1049 13.809
9 3 15.406 13.7309 14.0555
8 2 16.226 13.626 14.9592
10 1 17.1036 12.9442 14.8695
4 3 13.855 15.8735 13.8327
1 1 13.2141 17.4573 15.14
7 3 16.2142 14.162 16.1123
6 1 15.5473 14.905 16.2579
2 2 13.8926 16.4957 15.0023
3 3 14.4093 16.1168 16.0232
ITEM: TIMESTEP
5800
ITEM: NUMBER OF ATOMS
10
ITEM: BOX BOUNDS pp pp pp
0.0000000000000000e+00 3.0000000000000000e+01
0.0000000000000000e+00 3.0000000000000000e+01
0.0000000000000000e+00 3.0000000000000000e+01
ITEM: ATOMS id type x y z
5 1 14.2993 14.8779 13.9205