10
# ORCA AIMD Force Step 0, t=0.00 fs, E_Pot=-378.87723896 Hartree, Unit is Hartree/Angstrom
 H      0.0000000000      0.0000000000      0.0000000000
 C      0.0000000000      0.0000000000      0.0000000000
 O      0.0000000000      0.0000000000      0.0000000000
 O      0.0000000000      0.0000000000      0.0000000000
 H      0.0000000000      0.0000000000      0.0000000000
 H      0.0000000000      0.0000000000      0.0000000000
 O      0.0000000000      0.0000000000      0.0000000000
 C      0.0000000000      0.0000000000      0.0000000000
 O      0.0000000000      0.0000000000      0.0000000000
 H      0.0000000000      0.0000000000      0.0000000000
10
# ORCA AIMD Force Step 1, t=0.50 fs, E_Pot=-378.87682880 Hartree, Unit is Hartree/Angstrom
 H     -0.0066075296      0.0075352274     -0.0004721405
 C      0.0093853443     -0.0177273292     -0.0129083764
 O      0.0007463028      0.0012744814      0.0048520358
 O     -0.0137208541      0.0202600275      0.0062063529
 H      0.0095148541     -0.0104025038      0.0025916117
 H      0.0075290179     -0.0090897088     -0.0000636660
 O     -0.0058645282      0.0077417507     -0.0004751642
 C      0.0002659725     -0.0070158345     -0.0055701295
 O      0.0059684996     -0.0034158116      0.0051179974
 H     -0.0072170793      0.0108397010      0.0007214789
10
# ORCA AIMD Force Step 2, t=1.00 fs, E_Pot=-378.87568714 Hartree, Unit is Hartree/Angstrom
 H     -0.0131021558      0.0149890586     -0.0009778522
 C      0.0189536035     -0.0348678733     -0.0242208348
 O      0.0013000907      0.0025451241      0.0092091124
 O     -0.0282400311      0.0410383774      0.0114722790
 H      0.0200080064     -0.0221164146      0.0051359399
 H      0.0138918872     -0.0167079731     -0.0001131127
 O     -0.0105226525      0.0141381360     -0.0007056887
 C     -0.0013254077     -0.0126980120     -0.0126143476
 O      0.0123490030     -0.0067723274      0.0112663201
 H     -0.0133123438      0.0204519043      0.0015481844
10
# ORCA AIMD Force Step 3, t=1.50 fs, E_Pot=-378.87406221 Hartree, Unit is Hartree/Angstrom
 H     -0.0186970826      0.0214273938     -0.0014332645
 C      0.0274432776     -0.0507447429     -0.0354203930
 O      0.0019414742      0.0037586357      0.0136334702
 O     -0.0418780326      0.0607556761      0.0166612698
 H      0.0296340357     -0.0328846313      0.0074924803
 H      0.0189634436     -0.0226944939     -0.0000986200
 O     -0.0139821620      0.0189419984     -0.0010551533
 C     -0.0034119745     -0.0169642984     -0.0181935442
 O      0.0180245347     -0.0099632669      0.0161521250
 H     -0.0180375142      0.0283677293      0.0022616297
10
# ORCA AIMD Force Step 4, t=2.00 fs, E_Pot=-378.87230977 Hartree, Unit is Hartree/Angstrom
 H     -0.0228110995      0.0260698275     -0.0018859240
 C      0.0344438558     -0.0642433319     -0.0454969617
 O      0.0024694189      0.0049423293      0.0177196753
 O     -0.0534652658      0.0776333514      0.0212362110
 H      0.0373953965     -0.0414550010      0.0096574093
 H      0.0228284113     -0.0271481633     -0.0000032818
 O     -0.0163216885      0.0221073298     -0.0017980450
 C     -0.0063241914     -0.0194346176     -0.0224855621
 O      0.0231319008     -0.0129321496      0.0202031326
 H     -0.0213467380      0.0344604255      0.0028533464
10
# ORCA AIMD Force Step 5, t=2.50 fs, E_Pot=-378.87079908 Hartree, Unit is Hartree/Angstrom
 H     -0.0249200773      0.0282423319     -0.0022715871
 C      0.0392212381     -0.0746997838     -0.0549631457
 O      0.0030985390      0.0060020596      0.0217766829
 O     -0.0615092747      0.0898929055      0.0253408254
 H      0.0417885360     -0.0459267707      0.0116390543
 H      0.0253130995     -0.0298561621      0.0001732387
 O     -0.0174412862      0.0238127498     -0.0023864965
 C     -0.0099953076     -0.0204038286     -0.0259659712
 O      0.0276507999     -0.0157003457      0.0233206807
 H     -0.0232062667      0.0386368442      0.0033367185
10
# ORCA AIMD Force Step 6, t=3.00 fs, E_Pot=-378.86980753 Hartree, Unit is Hartree/Angstrom
 H     -0.0246097167      0.0273530515     -0.0026445757
 C      0.0414701044     -0.0810861695     -0.0628233748
 O      0.0035058960      0.0069935530      0.0251491888
 O     -0.0653819305      0.0965062591      0.0286746876
 H      0.0425162641     -0.0459008314      0.0134596344
 H      0.0268532474     -0.0313520531      0.0004499268
 O     -0.0176014381      0.0239960455     -0.0035519994
 C     -0.0148429256     -0.0191030859     -0.0283653867
 O      0.0316890184     -0.0181995077      0.0259647288
 H     -0.0235985195      0.0407927383      0.0036871701
10
# ORCA AIMD Force Step 7, t=3.50 fs, E_Pot=-378.86943275 Hartree, Unit is Hartree/Angstrom
 H     -0.0219073580      0.0234023946     -0.0029410655
 C      0.0410508309     -0.0835057305     -0.0696364342
 O      0.0038368300      0.0079059903      0.0281551913
 O     -0.0647325470      0.0971294624      0.0313787602
 H      0.0391603691     -0.0408038690      0.0151598151
 H      0.0273391540     -0.0315006125      0.0008280046
 O     -0.0167610401      0.0227927511     -0.0049413339
 C     -0.0204902352     -0.0158609948     -0.0294941027
 O      0.0350274643     -0.0204233248      0.0276137160
 H     -0.0225234679      0.0408639333      0.0038774491
10
# ORCA AIMD Force Step 8, t=4.00 fs, E_Pot=-378.86957712 Hartree, Unit is Hartree/Angstrom
 H     -0.0172758600      0.0169583321     -0.0031575287
 C      0.0386877292     -0.0829158225     -0.0755233191
 O      0.0040535406      0.0087179802      0.0306588498
 O     -0.0601101007      0.0925494579      0.0336818829
 H      0.0320763586     -0.0310519722      0.0167594091
 H      0.0264644869     -0.0299349362      0.0012840864
 O     -0.0148002108      0.0201427896     -0.0064048275
 C     -0.0268312902     -0.0108745912     -0.0296065818
 O      0.0377602010     -0.0224463173      0.0283929026
 H     -0.0200248545      0.0388550796      0.0039151264
10
# ORCA AIMD Force Step 9, t=4.50 fs, E_Pot=-378.86999441 Hartree, Unit is Hartree/Angstrom
 H     -0.0111336715      0.0085285411     -0.0032812398
 C      0.0341912008     -0.0789612658     -0.0802858185
 O      0.0042346535      0.0094891954      0.0329273108
 O     -0.0529370562      0.0843236035      0.0351796705
 H      0.0230889872     -0.0189672314      0.0181727232
 H      0.0247818854     -0.0273489954      0.0018208974
 O     -0.0119516127      0.0161626480     -0.0082283280
 C     -0.0338276608     -0.0037598615     -0.0280850354
 O      0.0396097746     -0.0240786501      0.0280253766
 H     -0.0160565004      0.0346120161      0.0037544432
10
# ORCA AIMD Force Step 10, t=5.00 fs, E_Pot=-378.87040634 Hartree, Unit is Hartree/Angstrom
 H     -0.0044460904     -0.0006794174     -0.0034202265
 C      0.0296612256     -0.0738469841     -0.0831260832
 O      0.0039071668      0.0102371509      0.0339716003
 O     -0.0444548513      0.0741573807      0.0361733946
 H      0.0129539029     -0.0055139188      0.0193731514
 H      0.0213446465     -0.0226025078      0.0023635162
 O     -0.0077110850      0.0106687274     -0.0096292880
 C     -0.0414877940      0.0048601968     -0.0261814785
 O      0.0409231815     -0.0255060548      0.0269902398
 H     -0.0106903024      0.0282254271      0.0034851739
10
# ORCA AIMD Force Step 11, t=5.50 fs, E_Pot=-378.87057674 Hartree, Unit is Hartree/Angstrom
 H      0.0023206812     -0.0100172772     -0.0035086782
 C      0.0246902909     -0.0674652499     -0.0846732610
 O      0.0033427663      0.0110384149      0.0344924197
 O     -0.0359822091      0.0637123644      0.0366552509
 H      0.0033629997      0.0070861760      0.0201986816
 H      0.0169320029     -0.0166768770      0.0029068624
 O     -0.0024515668      0.0037938860     -0.0111741279
 C     -0.0496416151      0.0153401641     -0.0230195222
 O      0.0414405724     -0.0265398193      0.0250667010
 H     -0.0040139222      0.0197282179      0.0030556736
10
# ORCA AIMD Force Step 12, t=6.00 fs, E_Pot=-378.87037845 Hartree, Unit is Hartree/Angstrom
 H      0.0085388101     -0.0186614141     -0.0035960618
 C      0.0202563987     -0.0609117292     -0.0846099841
 O      0.0023986339      0.0119100172      0.0342173666
 O     -0.0282248751      0.0538924953      0.0366600236
 H     -0.0051601935      0.0181305512      0.0205850650
 H      0.0112718952     -0.0092622029      0.0033965925
 O      0.0039692290     -0.0044590985     -0.0125305725
 C     -0.0580540559      0.0271069950     -0.0191255024
 O      0.0412898083     -0.0272164049      0.0224834949
 H      0.0037143491      0.0094707909      0.0025195782
10
# ORCA AIMD Force Step 13, t=6.50 fs, E_Pot=-378.86979485 Hartree, Unit is Hartree/Angstrom
 H      0.0138389734     -0.0261077820     -0.0036992279
 C      0.0168123332     -0.0547663135     -0.0828881074
 O      0.0010350242      0.0128683819      0.0330917342
 O     -0.0215226408      0.0451534825      0.0362365844
 H     -0.0123536818      0.0272429376      0.0204724565
 H      0.0044284628     -0.0004540209      0.0037977255
 O      0.0114608897     -0.0139445971     -0.0136209567
 C     -0.0662132725      0.0394753654     -0.0145516815
 O      0.0404428462     -0.0275052488      0.0192557942
 H      0.0120710655     -0.0019622052      0.0019056786
10
# ORCA AIMD Force Step 14, t=7.00 fs, E_Pot=-378.86891511 Hartree, Unit is Hartree/Angstrom
 H      0.0179704528     -0.0320036475     -0.0038295073
 C      0.0145815782     -0.0493096859     -0.0794379669
 O     -0.0007064852      0.0139002009      0.0311912971
 O     -0.0159607897      0.0375409183      0.0352583655
 H     -0.0181491393      0.0343047997      0.0198287083
 H     -0.0033404973      0.0094224941      0.0040907727
 O      0.0197620176     -0.0243315467     -0.0144063029
 C     -0.0734860539      0.0514558750     -0.0094639667
 O      0.0389270029     -0.0273651844      0.0155085042
 H      0.0204019139     -0.0136142236      0.0012600960
10
# ORCA AIMD Force Step 15, t=7.50 fs, E_Pot=-378.86791907 Hartree, Unit is Hartree/Angstrom
 H      0.0207666667     -0.0361388771     -0.0040341615
 C      0.0136978067     -0.0444471373     -0.0737202291
 O     -0.0028394780      0.0150048875      0.0285118192
 O     -0.0115357589      0.0308106222      0.0332357975
 H     -0.0225433668      0.0392826889      0.0186250388
 H     -0.0112614507      0.0194457453      0.0043371696
 O      0.0281169774     -0.0351730831     -0.0157010888
 C     -0.0788542131      0.0622097104     -0.0027855545
 O      0.0366101506     -0.0267519670      0.0109988977
 H      0.0278426661     -0.0242425898      0.0005323110
10
# ORCA AIMD Force Step 16, t=8.00 fs, E_Pot=-378.86705642 Hartree, Unit is Hartree/Angstrom
 H      0.0223362318     -0.0384994415     -0.0041231976
 C      0.0139190593     -0.0411607019     -0.0680467976
 O     -0.0049391324      0.0160005517      0.0255890689
 O     -0.0078568747      0.0252442333      0.0316988700
 H     -0.0260221492      0.0428091962      0.0169430878
 H     -0.0195788674      0.0298721785      0.0044435731
 O      0.0366322615     -0.0449841803     -0.0147338364
 C     -0.0820108628      0.0688574494      0.0012847098
 O      0.0339239300     -0.0256318886      0.0068491684
 H      0.0335964038     -0.0325073967      0.0000953537
10
# ORCA AIMD Force Step 17, t=8.50 fs, E_Pot=-378.86658893 Hartree, Unit is Hartree/Angstrom
 H      0.0225242520     -0.0389833604     -0.0042564031
 C      0.0154263742     -0.0385681398     -0.0603657315
 O     -0.0072557232      0.0169655559      0.0220919201
 O     -0.0050122143      0.0201744588      0.0291057638
 H     -0.0284420596      0.0446697892      0.0147221013
 H     -0.0263558905      0.0384194745      0.0046476376
 O      0.0434459639     -0.0531393401     -0.0143961214
 C     -0.0812970571      0.0715262690      0.0070581803
 O      0.0302586982     -0.0239378041      0.0017607991
 H      0.0367076566     -0.0371269029     -0.0003681461
10
# ORCA AIMD Force Step 18, t=9.00 fs, E_Pot=-378.86672528 Hartree, Unit is Hartree/Angstrom
 H      0.0213580150     -0.0375635427     -0.0043685500
 C      0.0181149726     -0.0369006437     -0.0513255753
 O     -0.0095986858      0.0177945907      0.0182294601
 O     -0.0028807749      0.0156012642      0.0257902493
 H     -0.0299041501      0.0450177020      0.0120278804
 H     -0.0308827852      0.0442179926      0.0050006694
 O      0.0478026510     -0.0581392268     -0.0137556487
 C     -0.0765328150      0.0689266564      0.0128393560
 O      0.0258405270     -0.0216610079     -0.0037255744
 H      0.0366830453     -0.0372937849     -0.0007122668
10
# ORCA AIMD Force Step 19, t=9.50 fs, E_Pot=-378.86752849 Hartree, Unit is Hartree/Angstrom
 H      0.0188931023     -0.0343031792     -0.0044451062
 C      0.0218434145     -0.0360200482     -0.0409994727
 O     -0.0119410214      0.0184610676      0.0140210305
 O     -0.0014953383      0.0115789134      0.0217615153
 H     -0.0302591061      0.0436886778      0.0089120569
 H     -0.0321818299      0.0460719383      0.0055885368
 O      0.0487971656     -0.0589729664     -0.0130487369
 C     -0.0679346592      0.0613001176      0.0185928654
 O      0.0207767896     -0.0188254227     -0.0094421741
 H      0.0335014829     -0.0329790983     -0.0009405150
10
# ORCA AIMD Force Step 20, t=10.00 fs, E_Pot=-378.86887012 Hartree, Unit is Hartree/Angstrom
 H      0.0150751612     -0.0290644827     -0.0044200009
 C      0.0265097652     -0.0362306022     -0.0301119261
 O     -0.0139408572      0.0188217228      0.0099442969
 O     -0.0006782284      0.0079278415      0.0171406697
 H     -0.0299556953      0.0413027309      0.0054772286
 H     -0.0303510548      0.0440668877      0.0063831961
 O      0.0463626705     -0.0552666296     -0.0118298374
 C     -0.0556590025      0.0488270304      0.0240628256
 O      0.0150629600     -0.0155826274     -0.0155967814
 H      0.0275742813     -0.0248018715     -0.0010496710
10
# ORCA AIMD Force Step 21, t=10.50 fs, E_Pot=-378.87045626 Hartree, Unit is Hartree/Angstrom
 H      0.0100298753     -0.0220272732     -0.0043046845
 C      0.0319676560     -0.0372363614     -0.0184945796
 O     -0.0156435227      0.0188992944      0.0059467072
 O     -0.0006572205      0.0048549193      0.0117703627
 H     -0.0286514420      0.0374901304      0.0018337016
 H     -0.0255291276      0.0383213864      0.0073293960
 O      0.0407480861     -0.0474570873     -0.0103550162
 C     -0.0410522203      0.0333329331      0.0291951898
 O      0.0089929712     -0.0120716548     -0.0218464663
 H      0.0197949446     -0.0141062868     -0.0010746107
10
# ORCA AIMD Force Step 22, t=11.00 fs, E_Pot=-378.87192826 Hartree, Unit is Hartree/Angstrom
 H      0.0039899532     -0.0135034755     -0.0040889559
 C      0.0378100869     -0.0385263321     -0.0062443552
 O     -0.0169761104      0.0186911588      0.0021779960
 O     -0.0016181069      0.0024913228      0.0055138060
 H     -0.0260569863      0.0319663505     -0.0018750500
 H     -0.0184482577      0.0296657286      0.0082890411
 O      0.0328521149     -0.0366176275     -0.0085732605
 C     -0.0254718729      0.0167645058      0.0340168667
 O      0.0026786122     -0.0084239830     -0.0281728029
 H      0.0112405669     -0.0025076485     -0.0010432852
10
# ORCA AIMD Force Step 23, t=11.50 fs, E_Pot=-378.87297049 Hartree, Unit is Hartree/Angstrom
 H     -0.0026870492     -0.0039434491     -0.0037009807
 C      0.0432455598     -0.0395482572      0.0058190084
 O     -0.0176855853      0.0182023287     -0.0008196385
 O     -0.0037461971      0.0011704774     -0.0014855243
 H     -0.0218889196      0.0244362400     -0.0055307437
 H     -0.0099407145      0.0190546374      0.0091140417
 O      0.0236555386     -0.0239818626     -0.0064931562
 C     -0.0101066255      0.0007261046      0.0384661256
 O     -0.0036710358     -0.0047769128     -0.0343986508
 H      0.0028250286      0.0086606936     -0.0009704815
10
# ORCA AIMD Force Step 24, t=12.00 fs, E_Pot=-378.87338210 Hartree, Unit is Hartree/Angstrom
 H     -0.0096304767      0.0060799294     -0.0032301900
 C      0.0485978693     -0.0403335244      0.0182261693
 O     -0.0181049159      0.0174428172     -0.0037205957
 O     -0.0071177455      0.0010621081     -0.0091085791
 H     -0.0163885344      0.0152975671     -0.0089730403
 H     -0.0015974893      0.0084433132      0.0096800929
 O      0.0144597142     -0.0110587329     -0.0038788525
 C      0.0043117876     -0.0141234088      0.0420419968
 O     -0.0096487387     -0.0014181156     -0.0401645612
 H     -0.0048814707      0.0186080468     -0.0008724401
10
# ORCA AIMD Force Step 25, t=12.50 fs, E_Pot=-378.87311665 Hartree, Unit is Hartree/Angstrom
 H     -0.0162123777      0.0157107350     -0.0026649989
 C      0.0529297105     -0.0398601037      0.0305617627
 O     -0.0180705002      0.0164299974     -0.0061492711
 O     -0.0118779752      0.0023126865     -0.0174169173
 H     -0.0092929387      0.0042836367     -0.0120731458
 H      0.0060767772     -0.0015517160      0.0099250251
 O      0.0059414637      0.0012889761     -0.0007380566
 C      0.0170533555     -0.0268798250      0.0446688856
 O     -0.0151401770      0.0015869362     -0.0453555001
 H     -0.0114073381      0.0266786770     -0.0007577835
10
# ORCA AIMD Force Step 26, t=13.00 fs, E_Pot=-378.87225980 Hartree, Unit is Hartree/Angstrom
 H     -0.0217507550      0.0239963939     -0.0020327932
 C      0.0555514521     -0.0372888750      0.0426305844
 O     -0.0175541869      0.0151739536     -0.0080220123
 O     -0.0179665297      0.0048830399     -0.0263553273
 H     -0.0006793700     -0.0084571641     -0.0147314726
 H      0.0126549587     -0.0103794548      0.0098379725
 O     -0.0014553922      0.0124899708      0.0029240087
 C      0.0277205003     -0.0371852775      0.0461654561
 O     -0.0199853933      0.0041622915     -0.0497804342
 H     -0.0165352841      0.0326051216     -0.0006359821
10
# ORCA AIMD Force Step 27, t=13.50 fs, E_Pot=-378.87099631 Hartree, Unit is Hartree/Angstrom
 H     -0.0255806093      0.0300123923     -0.0013645467
 C      0.0558190417     -0.0318713776      0.0542019527
 O     -0.0165317986      0.0136834191     -0.0092637032
 O     -0.0250385029      0.0084221179     -0.0357786586
 H      0.0090764514     -0.0224269151     -0.0169085208
 H      0.0179604760     -0.0177856697      0.0094437952
 O     -0.0075481329      0.0222763872      0.0070577952
 C      0.0360944270     -0.0448962540      0.0464054803
 O     -0.0240702738      0.0062722047     -0.0532750416
 H     -0.0201810787      0.0363136951     -0.0005185525
10
# ORCA AIMD Force Step 28, t=14.00 fs, E_Pot=-378.86957171 Hartree, Unit is Hartree/Angstrom
 H     -0.0271916436      0.0330576538     -0.0006863431
 C      0.0532680717     -0.0231451290      0.0649958860
 O     -0.0149765361      0.0119651868     -0.0097957844
 O     -0.0323636142      0.0121486403     -0.0454235238
 H      0.0191910375     -0.0366489247     -0.0186551830
 H      0.0219776572     -0.0237110992      0.0087855468
 O     -0.0123257836      0.0305780080      0.0115799645
 C      0.0420798432     -0.0499874402      0.0453356463
 O     -0.0273277553      0.0079129504     -0.0557155448
 H     -0.0223312768      0.0378301537     -0.0004206644
10
# ORCA AIMD Force Step 29, t=14.50 fs, E_Pot=-378.86825395 Hartree, Unit is Hartree/Angstrom
 H     -0.0263496036      0.0328225622     -0.0000122927
 C      0.0477376183     -0.0111047198      0.0746786285
 O     -0.0128636708      0.0100283270     -0.0095403779
 O     -0.0388162386      0.0148499251     -0.0548844309
 H      0.0284607564     -0.0496574636     -0.0201298377
 H      0.0247700347     -0.0281964287      0.0079116058
 O     -0.0158637925      0.0374246229      0.0163899380
 C      0.0456452065     -0.0524751889      0.0429632771
 O     -0.0297269884      0.0091000101     -0.0570161059
 H     -0.0229933221      0.0372083537     -0.0003604043
10
# ORCA AIMD Force Step 30, t=15.00 fs, E_Pot=-378.86728950 Hartree, Unit is Hartree/Angstrom
 H     -0.0231622084      0.0294718314      0.0006530532
 C      0.0394317593      0.0037590635      0.0829255838
 O     -0.0101781586      0.0078932966     -0.0084222287
 O     -0.0430586090      0.0150633956     -0.0636979574
 H      0.0354487761     -0.0597174224     -0.0215671042
 H      0.0264415776     -0.0313364385      0.0068698325
 O     -0.0182801342      0.0428630002      0.0213214974
 C      0.0468233992     -0.0523650758      0.0394477093
 O     -0.0312892384      0.0098666697     -0.0571644692
 H     -0.0221771635      0.0345016796     -0.0003659167
10
# ORCA AIMD Force Step 31, t=15.50 fs, E_Pot=-378.86684893 Hartree, Unit is Hartree/Angstrom
 H     -0.0180234552      0.0235793291      0.0013462509
 C      0.0288014153      0.0203589037      0.0890077399
 O     -0.0068769271      0.0055760336     -0.0063142977
 O     -0.0438086539      0.0116034797     -0.0710666900
 H      0.0387719394     -0.0651619923     -0.0232260071
 H      0.0270430173     -0.0331623844      0.0057032236
 O     -0.0196215671      0.0469477691      0.0263801856
 C      0.0455257223     -0.0496661323      0.0346795449
 O     -0.0319695222      0.0102107297     -0.0560684461
 H     -0.0198419687      0.0297142640     -0.0004415040
10
# ORCA AIMD Force Step 32, t=16.00 fs, E_Pot=-378.86696874 Hartree, Unit is Hartree/Angstrom
 H     -0.0116099601      0.0160647172      0.0020693570
 C      0.0169228393      0.0371273584      0.0927922644
 O     -0.0031355731      0.0030865644     -0.0035581528
 O     -0.0403567799      0.0039181014     -0.0764062621
 H      0.0375624845     -0.0648988123     -0.0252385840
 H      0.0263644022     -0.0333736843      0.0044499429
 O     -0.0198376965      0.0495008931      0.0314182414
 C      0.0418024003     -0.0445297361      0.0286166714
 O     -0.0316572374      0.0101022291     -0.0535518267
 H     -0.0160548792      0.0230023691     -0.0005916514
10
# ORCA AIMD Force Step 33, t=16.50 fs, E_Pot=-378.86753384 Hartree, Unit is Hartree/Angstrom
 H     -0.0045479572      0.0077515095      0.0027828728
 C      0.0041568639      0.0537569440      0.0945148810
 O      0.0010598111      0.0005930290      0.0001637090
 O     -0.0333064086     -0.0077440391     -0.0804500703
 H      0.0325381455     -0.0596849596     -0.0273857943
 H      0.0250930398     -0.0328140918      0.0031703113
 O     -0.0192986462      0.0506799916      0.0358548596
 C      0.0359843780     -0.0365654664      0.0227552853
 O     -0.0309469702      0.0097662397     -0.0504706159
 H     -0.0107322560      0.0142608430     -0.0009354385
10
# ORCA AIMD Force Step 34, t=17.00 fs, E_Pot=-378.86831238 Hartree, Unit is Hartree/Angstrom
 H      0.0023126787     -0.0002065636      0.0035266464
 C     -0.0082279978      0.0679893206      0.0931944333
 O      0.0056326221     -0.0018465552      0.0047913955
 O     -0.0235259950     -0.0217653694     -0.0823588623
 H      0.0242584067     -0.0501304912     -0.0294981666
 H      0.0228272969     -0.0309313268      0.0019062909
 O     -0.0176797162      0.0503394292      0.0400734652
 C      0.0280127751     -0.0263244077      0.0163565460
 O     -0.0296044343      0.0090660260     -0.0465901230
 H     -0.0040056363      0.0038099382     -0.0014016252
10
# ORCA AIMD Force Step 35, t=17.50 fs, E_Pot=-378.86904885 Hartree, Unit is Hartree/Angstrom
 H      0.0085647855     -0.0072953937      0.0043077252
 C     -0.0198440037      0.0793012223      0.0890252346
 O      0.0104127467     -0.0042929106      0.0098827525
 O     -0.0123380469     -0.0363797601     -0.0822842656
 H      0.0142619927     -0.0379676500     -0.0311844966
 H      0.0193027545     -0.0273583091      0.0006925575
 O     -0.0148516161      0.0481183722      0.0439007934
 C      0.0182717522     -0.0144369099      0.0091766400
 O     -0.0274266407      0.0079651148     -0.0415724641
 H      0.0036462758     -0.0076537759     -0.0019444769
10
# ORCA AIMD Force Step 36, t=18.00 fs, E_Pot=-378.86955658 Hartree, Unit is Hartree/Angstrom
 H      0.0138281239     -0.0130400959      0.0051066016
 C     -0.0303583226      0.0872547003      0.0819375728
 O      0.0153418755     -0.0066337008      0.0155052109
 O     -0.0011826143     -0.0498865223     -0.0805021381
 H      0.0039864029     -0.0248924587     -0.0321203850
 H      0.0146560499     -0.0222242852     -0.0004046332
 O     -0.0108318539      0.0439123759      0.0470648573
 C      0.0075803274     -0.0016039104      0.0019500918
 O     -0.0247083242      0.0065124335     -0.0359722828
 H      0.0116883354     -0.0193985364     -0.0025648954
10
# ORCA AIMD Force Step 37, t=18.50 fs, E_Pot=-378.86976609 Hartree, Unit is Hartree/Angstrom
 H      0.0178829575     -0.0171961096      0.0058866362
 C     -0.0394563167      0.0917177365      0.0723580348
 O      0.0202638866     -0.0088181960      0.0214172193
 O      0.0089068885     -0.0610968834     -0.0773272458
 H     -0.0054932737     -0.0122142418     -0.0321081551
 H      0.0088310508     -0.0154175656     -0.0013334245
 O     -0.0055475732      0.0376097103      0.0495166283
 C     -0.0031542811      0.0110388047     -0.0052402096
 O     -0.0215368077      0.0047228794     -0.0299796509
 H      0.0193034689     -0.0303461344     -0.0031898326
10
# ORCA AIMD Force Step 38, t=19.00 fs, E_Pot=-378.86972090 Hartree, Unit is Hartree/Angstrom
 H      0.0206303165     -0.0196717085      0.0066222584
 C     -0.0470035000      0.0927662142      0.0606829278
 O      0.0250571376     -0.0108163777      0.0274142437
 O      0.0174186345     -0.0694121316     -0.0729440832
 H     -0.0136085637     -0.0006754795     -0.0311003934
 H      0.0018379452     -0.0069178463     -0.0020473576
 O      0.0009853440      0.0291849922      0.0511727148
 C     -0.0127985222      0.0221639910     -0.0122919621
 O     -0.0180013998      0.0026118618     -0.0237905083
 H      0.0254826079     -0.0392335154     -0.0037178400
10
# ORCA AIMD Force Step 39, t=19.50 fs, E_Pot=-378.86953314 Hartree, Unit is Hartree/Angstrom
 H      0.0220409658     -0.0204663315      0.0072846100
 C     -0.0529027690      0.0906082941      0.0474248354
 O      0.0296015922     -0.0126042762      0.0332838405
 O      0.0241930211     -0.0747171899     -0.0675455481
 H     -0.0201582447      0.0094041554     -0.0291483104
 H     -0.0061720722      0.0031009764     -0.0025165617
 O      0.0085968325      0.0188361457      0.0519781883
 C     -0.0202286272      0.0304984037     -0.0191330801
 O     -0.0142048529      0.0002154567     -0.0175972149
 H      0.0292341545     -0.0448756345     -0.0040307590
10
# ORCA AIMD Force Step 40, t=20.00 fs, E_Pot=-378.86932761 Hartree, Unit is Hartree/Angstrom
 H      0.0221247474     -0.0196275680      0.0078454266
 C     -0.0570676245      0.0855049778      0.0331509914
 O      0.0337801827     -0.0141636462      0.0388104760
 O      0.0292931484     -0.0772037811     -0.0613264263
 H     -0.0251751064      0.0179822485     -0.0263610500
 H     -0.0148262456      0.0141533109     -0.0027441035
 O      0.0168822573      0.0070937197      0.0519185322
 C     -0.0245864327      0.0351294583     -0.0257058462
 O     -0.0102542543     -0.0024109094     -0.0115697623
 H      0.0298293277     -0.0464578104     -0.0040182379
10
# ORCA AIMD Force Step 41, t=20.50 fs, E_Pot=-378.86920031 Hartree, Unit is Hartree/Angstrom
 H      0.0209138146     -0.0172288439      0.0082773886
 C     -0.0594049818      0.0777276343      0.0184520662
 O      0.0374754351     -0.0154772984      0.0437771784
 O      0.0328804909     -0.0772105620     -0.0544916107
 H     -0.0288008286      0.0251493192     -0.0228732336
 H     -0.0234651422      0.0253446961     -0.0027826434
 O      0.0251434505     -0.0050937025      0.0510332351
 C     -0.0255063354      0.0357591288     -0.0319333521
 O     -0.0062580963     -0.0051936226     -0.0058492947
 H      0.0270221933     -0.0437767490     -0.0036097340
10
# ORCA AIMD Force Step 42, t=21.00 fs, E_Pot=-378.86920536 Hartree, Unit is Hartree/Angstrom
 H      0.0184607537     -0.0133668441      0.0085543959
 C     -0.0598177597      0.0675442598      0.0039158396
 O      0.0405663671     -0.0165242347      0.0479678185
 O      0.0351314325     -0.0751095703     -0.0472541264
 H     -0.0312017099      0.0310278260     -0.0188274129
 H     -0.0311534196      0.0353805456     -0.0027433795
 O      0.0324068715     -0.0163775677      0.0494269648
 C     -0.0232072257      0.0327796179     -0.0377001225
 O     -0.0023206909     -0.0080451184     -0.0005412838
 H      0.0211353811     -0.0373089140     -0.0027986935
10
# ORCA AIMD Force Step 43, t=21.50 fs, E_Pot=-378.86936311 Hartree, Unit is Hartree/Angstrom
 H      0.0148579026     -0.0081837358      0.0086544467
 C     -0.0582198019      0.0552172845     -0.0099007980
 O      0.0429180650     -0.0172809119      0.0511427696
 O      0.0362027418     -0.0712311405     -0.0397940362
 H     -0.0325328520      0.0357277168     -0.0143671059
 H     -0.0368461064      0.0427948221     -0.0027849823
 O      0.0375946175     -0.0252066659      0.0473138929
 C     -0.0184277944      0.0271135000     -0.0429305593
 O      0.0014787838     -0.0108767953      0.0043086218
 H      0.0129744438     -0.0280740741     -0.0016422492
10
# ORCA AIMD Force Step 44, t=22.00 fs, E_Pot=-378.86966927 Hartree, Unit is Hartree/Angstrom
 H      0.0102332391     -0.0018678869      0.0085554932
 C     -0.0546120996      0.0410965330     -0.0224983054
 O      0.0444341792     -0.0177073213      0.0531750309
 O      0.0361713018     -0.0658567006     -0.0323691045
 H     -0.0328768092      0.0392681510     -0.0096318774
 H     -0.0395666425      0.0462010754     -0.0030859148
 O      0.0397085216     -0.0302390887      0.0447658788
 C     -0.0120829746      0.0200144125     -0.0472700239
 O      0.0050230160     -0.0135751435      0.0086248226
 H      0.0035682682     -0.0173340308     -0.0002659994
10