10
# ORCA AIMD Force Step 0, t=0.00 fs, E_Pot=-378.87723896 Hartree, Unit is Hartree/Angstrom
 H      0.0000000000      0.0000000000      0.0000000000
 C      0.0000000000      0.0000000000      0.0000000000
 O      0.0000000000      0.0000000000      0.0000000000
 O      0.0000000000      0.0000000000      0.0000000000
 H      0.0000000000      0.0000000000      0.0000000000
 H      0.0000000000      0.0000000000      0.0000000000
 O      0.0000000000      0.0000000000      0.0000000000
 C      0.0000000000      0.0000000000      0.0000000000
 O      0.0000000000      0.0000000000      0.0000000000
 H      0.0000000000      0.0000000000      0.0000000000
10
# ORCA AIMD Force Step 1, t=0.50 fs, E_Pot=-378.87654992 Hartree, Unit is Hartree/Angstrom
 H     -0.0086355505      0.0098758359     -0.0005954976
 C      0.0122359538     -0.0230736340     -0.0167220682
 O      0.0009834562      0.0016581795      0.0063207359
 O     -0.0180068179      0.0265328340      0.0080119256
 H      0.0125351055     -0.0137534432      0.0033549450
 H      0.0096273716     -0.0116084503     -0.0000737484
 O     -0.0074699886      0.0098329936     -0.0006931739
 C      0.0002807927     -0.0089660332     -0.0070658372
 O      0.0076802321     -0.0044111697      0.0065392672
 H     -0.0092305549      0.0139128876      0.0009234516
10
# ORCA AIMD Force Step 2, t=1.00 fs, E_Pot=-378.87462908 Hartree, Unit is Hartree/Angstrom
 H     -0.0172059894      0.0197726020     -0.0012617796
 C      0.0249170557     -0.0455359203     -0.0310437681
 O      0.0016914625      0.0032481534      0.0118452840
 O     -0.0374413151      0.0542004224      0.0146856391
 H      0.0266960283     -0.0296824964      0.0066018671
 H      0.0171707727     -0.0206221503     -0.0001613798
 O     -0.0128806540      0.0178117379     -0.0001154817
 C     -0.0021492196     -0.0164223650     -0.0170649164
 O      0.0159273951     -0.0087552389      0.0144415033
 H     -0.0167255361      0.0259852550      0.0020730321
10
# ORCA AIMD Force Step 3, t=1.50 fs, E_Pot=-378.87189247 Hartree, Unit is Hartree/Angstrom
 H     -0.0247254619      0.0285294611     -0.0018889408
 C      0.0362645357     -0.0662678372     -0.0448468477
 O      0.0024097714      0.0048996765      0.0174605121
 O     -0.0562032157      0.0809017823      0.0209459354
 H      0.0402713411     -0.0451085741      0.0095404594
 H      0.0236611151     -0.0282548161     -0.0000986709
 O     -0.0172799758      0.0232973038     -0.0016824847
 C     -0.0048110560     -0.0211806594     -0.0226584539
 O      0.0230202944     -0.0128068009      0.0203369041
 H     -0.0226073484      0.0359904639      0.0028915870
10
# ORCA AIMD Force Step 4, t=2.00 fs, E_Pot=-378.86895473 Hartree, Unit is Hartree/Angstrom
 H     -0.0301865461      0.0348449934     -0.0024398848
 C      0.0453510002     -0.0839439518     -0.0579029893
 O      0.0032411657      0.0063529948      0.0229125952
 O     -0.0718792280      0.1036617769      0.0268596568
 H      0.0510456491     -0.0572512219      0.0121677426
 H      0.0281441913     -0.0333821664      0.0000172196
 O     -0.0197973917      0.0269630047     -0.0022454996
 C     -0.0091943424     -0.0241613030     -0.0290530989
 O      0.0298267222     -0.0166801160      0.0259516234
 H     -0.0265512201      0.0435959892      0.0037326351
10
# ORCA AIMD Force Step 5, t=2.50 fs, E_Pot=-378.86646159 Hartree, Unit is Hartree/Angstrom
 H     -0.0328564851      0.0376873344     -0.0029364868
 C      0.0514824314     -0.0972278736     -0.0695332734
 O      0.0040509010      0.0077026050      0.0280894055
 O     -0.0822892931      0.1194023254      0.0318043841
 H      0.0567680298     -0.0632214037      0.0145555647
 H      0.0311543656     -0.0366183737      0.0002739798
 O     -0.0211044150      0.0287413806     -0.0034202847
 C     -0.0137415701     -0.0251951508     -0.0325887531
 O      0.0353646046     -0.0201776909      0.0294585475
 H     -0.0288285691      0.0489068473      0.0042969163
10
# ORCA AIMD Force Step 6, t=3.00 fs, E_Pot=-378.86487624 Hartree, Unit is Hartree/Angstrom
 H     -0.0321505016      0.0362431243     -0.0033552698
 C      0.0539399280     -0.1049701914     -0.0795482741
 O      0.0047444274      0.0088865723      0.0326147588
 O     -0.0862475130      0.1265966899      0.0358925921
 H      0.0567264872     -0.0620476111      0.0167878789
 H      0.0329684294     -0.0383276472      0.0006455756
 O     -0.0212142470      0.0288717906     -0.0048597889
 C     -0.0199430842     -0.0236794146     -0.0356997466
 O      0.0405559698     -0.0234235064      0.0327629400
 H     -0.0293798962      0.0518501936      0.0047593339
10
# ORCA AIMD Force Step 7, t=3.50 fs, E_Pot=-378.86431785 Hartree, Unit is Hartree/Angstrom
 H     -0.0281553669      0.0305286681     -0.0036563038
 C      0.0527052503     -0.1071768894     -0.0881488038
 O      0.0053469764      0.0099508510      0.0366393635
 O     -0.0836061220      0.1249983616      0.0390299582
 H      0.0506925992     -0.0533335635      0.0189727675
 H      0.0337138702     -0.0386536693      0.0011593938
 O     -0.0203427481      0.0274580648     -0.0068430622
 C     -0.0267777435     -0.0198512031     -0.0366731644
 O      0.0447163787     -0.0263055654      0.0345452019
 H     -0.0282930942      0.0523849453      0.0049746491
10
# ORCA AIMD Force Step 8, t=4.00 fs, E_Pot=-378.86455816 Hartree, Unit is Hartree/Angstrom
 H     -0.0216439617      0.0214950495     -0.0038329606
 C      0.0489006299     -0.1053918322     -0.0956196163
 O      0.0058546178      0.0108464325      0.0400562844
 O     -0.0756885196      0.1164118416      0.0415493188
 H      0.0397194824     -0.0383370779      0.0211613818
 H      0.0329260386     -0.0370398133      0.0017769278
 O     -0.0182779278      0.0245148913     -0.0088817211
 C     -0.0343410992     -0.0140282470     -0.0364559365
 O      0.0481486236     -0.0289752497      0.0352495025
 H     -0.0255978842      0.0505040052      0.0049968193
10
# ORCA AIMD Force Step 9, t=4.50 fs, E_Pot=-378.86515641 Hartree, Unit is Hartree/Angstrom
 H     -0.0133673170      0.0100575534     -0.0039062067
 C      0.0428847310     -0.0997970075     -0.1015046003
 O      0.0061816988      0.0116629860      0.0428248106
 O     -0.0649289753      0.1037380170      0.0431920778
 H      0.0266168245     -0.0206564228      0.0232003580
 H      0.0310217812     -0.0340210907      0.0024861154
 O     -0.0151582059      0.0201729976     -0.0110332637
 C     -0.0426528635     -0.0058904401     -0.0347502917
 O      0.0506082949     -0.0312405828      0.0346926726
 H     -0.0212059687      0.0459739899      0.0047983280
10
# ORCA AIMD Force Step 10, t=5.00 fs, E_Pot=-378.86567605 Hartree, Unit is Hartree/Angstrom
 H     -0.0044401358     -0.0023346191     -0.0039221843
 C      0.0360527366     -0.0921305629     -0.1056700235
 O      0.0061500803      0.0124880112      0.0447029931
 O     -0.0534868114      0.0898477339      0.0442400538
 H      0.0134072251     -0.0029407077      0.0249211090
 H      0.0278406487     -0.0294273773      0.0032393250
 O     -0.0108696211      0.0143374305     -0.0132090516
 C     -0.0517517196      0.0046195012     -0.0317583241
 O      0.0521873333     -0.0331310637      0.0330647608
 H     -0.0150897361      0.0386716541      0.0043913417
10
# ORCA AIMD Force Step 11, t=5.50 fs, E_Pot=-378.86581245 Hartree, Unit is Hartree/Angstrom
 H      0.0042112072     -0.0144485037     -0.0039255026
 C      0.0294625713     -0.0837105391     -0.1079511275
 O      0.0056305510      0.0134057291      0.0455577940
 O     -0.0428673727      0.0767211520      0.0448325991
 H      0.0015223818      0.0128904010      0.0261441825
 H      0.0232788435     -0.0231664162      0.0039782969
 O     -0.0052876604      0.0069275147     -0.0152622738
 C     -0.0616214089      0.0174683599     -0.0276942626
 O      0.0529359193     -0.0346302086      0.0305241817
 H     -0.0072650322      0.0285425110      0.0037961125
10
# ORCA AIMD Force Step 12, t=6.00 fs, E_Pot=-378.86542231 Hartree, Unit is Hartree/Angstrom
 H      0.0119149878     -0.0253651687     -0.0039553334
 C      0.0238947861     -0.0755284218     -0.1082202729
 O      0.0045388651      0.0144773507      0.0453186590
 O     -0.0337939947      0.0653069316      0.0450245899
 H     -0.0084109334      0.0259557753      0.0267393133
 H      0.0172191316     -0.0151314307      0.0046363664
 O      0.0017128196     -0.0021414018     -0.0170471934
 C     -0.0720906244      0.0323924814     -0.0227668627
 O      0.0529025387     -0.0357172360      0.0272272826
 H      0.0021124236      0.0157511201      0.0030434511
10
# ORCA AIMD Force Step 13, t=6.50 fs, E_Pot=-378.86450021 Hartree, Unit is Hartree/Angstrom
 H      0.0182680875     -0.0345110614     -0.0040386501
 C      0.0198213801     -0.0682074003     -0.1064103813
 O      0.0028486846      0.0157277486      0.0439809589
 O     -0.0264110500      0.0557892947      0.0447982451
 H     -0.0163434389      0.0361278687      0.0266362131
 H      0.0095869565     -0.0052628290      0.0051484513
 O      0.0101957162     -0.0128876309     -0.0184288852
 C     -0.0827317320      0.0487388661     -0.0171744206
 O      0.0521174020     -0.0363575542      0.0233102808
 H      0.0126479940      0.0008426978      0.0021781880
10
# ORCA AIMD Force Step 14, t=7.00 fs, E_Pot=-378.86315863 Hartree, Unit is Hartree/Angstrom
 H      0.0230812369     -0.0415939886     -0.0041874327
 C      0.0174482534     -0.0620580558     -0.1025276380
 O      0.0005965819      0.0171399687      0.0416050992
 O     -0.0205452493      0.0479276379      0.0440919041
 H     -0.0225214087      0.0436764514      0.0258126193
 H      0.0004490505      0.0063406300      0.0054679649
 O      0.0200643422     -0.0251511130     -0.0193014525
 C     -0.0927589063      0.0653129017     -0.0110822839
 O      0.0505690890     -0.0364912177      0.0188614995
 H      0.0236170103     -0.0151032144      0.0012597201
10
# ORCA AIMD Force Step 15, t=7.50 fs, E_Pot=-378.86162572 Hartree, Unit is Hartree/Angstrom
 H      0.0262719623     -0.0464318928     -0.0043537555
 C      0.0164289855     -0.0571443019     -0.0973301152
 O     -0.0018486011      0.0186241054      0.0388225522
 O     -0.0158921369      0.0413807497      0.0429456571
 H     -0.0272489145      0.0489620967      0.0242742549
 H     -0.0095386860      0.0188881899      0.0056168775
 O      0.0307217884     -0.0384578574     -0.0200998546
 C     -0.1010275360      0.0806053007     -0.0041263738
 O      0.0482255305     -0.0360514277      0.0139214338
 H      0.0339076078     -0.0303749625      0.0003293236
10
# ORCA AIMD Force Step 16, t=8.00 fs, E_Pot=-378.86023918 Hartree, Unit is Hartree/Angstrom
 H      0.0279159293     -0.0491925350     -0.0046771979
 C      0.0178296801     -0.0534943856     -0.0886687465
 O     -0.0052273529      0.0202158501      0.0341634417
 O     -0.0122481927      0.0355190659      0.0407738711
 H     -0.0308119404      0.0523577542      0.0220630367
 H     -0.0205660534      0.0326330991      0.0055863005
 O      0.0420177769     -0.0518237723     -0.0193813223
 C     -0.1061324468      0.0916245296      0.0020179070
 O      0.0449521292     -0.0348580722      0.0085581214
 H      0.0422704707     -0.0429815337     -0.0004354117
10
# ORCA AIMD Force Step 17, t=8.50 fs, E_Pot=-378.85939738 Hartree, Unit is Hartree/Angstrom
 H      0.0280013533     -0.0497074851     -0.0049588181
 C      0.0202589704     -0.0510267720     -0.0792576404
 O     -0.0084477653      0.0216788056      0.0295175433
 O     -0.0092372777      0.0302380221      0.0381669221
 H     -0.0334998288      0.0542180464      0.0191948115
 H     -0.0305099155      0.0450377316      0.0055773977
 O      0.0520753449     -0.0637269131     -0.0185797789
 C     -0.1065869191      0.0968682672      0.0087900704
 O      0.0406673181     -0.0328961450      0.0026124486
 H      0.0472787197     -0.0506835577     -0.0010629563
10
# ORCA AIMD Force Step 18, t=9.00 fs, E_Pot=-378.85945513 Hartree, Unit is Hartree/Angstrom
 H      0.0265154481     -0.0479631432     -0.0052386671
 C      0.0240495266     -0.0496329774     -0.0682003649
 O     -0.0116851948      0.0229615717      0.0244458947
 O     -0.0067902143      0.0251716177      0.0346686808
 H     -0.0353192210      0.0545776361      0.0157243338
 H     -0.0381002120      0.0546000586      0.0057601859
 O      0.0595173242     -0.0722624251     -0.0173827129
 C     -0.1015495529      0.0945976459      0.0154747870
 O      0.0353580303     -0.0300726152     -0.0037844999
 H      0.0480040658     -0.0519773693     -0.0014676375
10
# ORCA AIMD Force Step 19, t=9.50 fs, E_Pot=-378.86057172 Hartree, Unit is Hartree/Angstrom
 H      0.0234796364     -0.0439452134     -0.0054704050
 C      0.0290026465     -0.0492560232     -0.0558251287
 O     -0.0147458017      0.0239528994      0.0191720785
 O     -0.0048097262      0.0201952383      0.0302980977
 H     -0.0363471915      0.0535653007      0.0117184627
 H     -0.0418679264      0.0595493256      0.0063084463
 O      0.0628639401     -0.0756050529     -0.0158914073
 C     -0.0908136933      0.0844850308      0.0220165668
 O      0.0289954403     -0.0263968975     -0.0106847413
 H      0.0442426757     -0.0465446077     -0.0016419698
10
# ORCA AIMD Force Step 20, t=10.00 fs, E_Pot=-378.86260262 Hartree, Unit is Hartree/Angstrom
 H      0.0189321193     -0.0376900402     -0.0056291559
 C      0.0350687514     -0.0498558225     -0.0421869826
 O     -0.0176505372      0.0246407907      0.0136417874
 O     -0.0033684346      0.0154266536      0.0250940198
 H     -0.0364064326      0.0510082227      0.0072699078
 H     -0.0408297015      0.0586559970      0.0073134453
 O      0.0612127303     -0.0727801102     -0.0144625017
 C     -0.0754422125      0.0680560165      0.0284260047
 O      0.0218067943     -0.0219877625     -0.0178441479
 H      0.0366769231     -0.0354739451     -0.0016223769
10
# ORCA AIMD Force Step 21, t=10.50 fs, E_Pot=-378.86511686 Hartree, Unit is Hartree/Angstrom
 H      0.0128517797     -0.0290975661     -0.0056507471
 C      0.0419790817     -0.0513770916     -0.0277703670
 O     -0.0199902659      0.0248594435      0.0084214596
 O     -0.0024194271      0.0106292000      0.0188376899
 H     -0.0357729925      0.0473539450      0.0025500155
 H     -0.0355282908      0.0524885440      0.0086514486
 O      0.0550096555     -0.0639127630     -0.0124490420
 C     -0.0565007273      0.0468870806      0.0343620948
 O      0.0138193209     -0.0170774264     -0.0255077865
 H      0.0265518658     -0.0207533660     -0.0014447657
10
# ORCA AIMD Force Step 22, t=11.00 fs, E_Pot=-378.86754512 Hartree, Unit is Hartree/Angstrom
 H      0.0053955744     -0.0183878362     -0.0055158437
 C      0.0495707709     -0.0536294997     -0.0126449206
 O     -0.0218234870      0.0246534078      0.0034726539
 O     -0.0022385808      0.0061953096      0.0115610066
 H     -0.0340888158      0.0422345598     -0.0022987739
 H     -0.0268895703      0.0420684030      0.0101315074
 O      0.0453032718     -0.0504880654     -0.0101980399
 C     -0.0360835049      0.0240146898      0.0399208622
 O      0.0055021324     -0.0119515154     -0.0332489930
 H      0.0153522092     -0.0047094533     -0.0011794590
10
# ORCA AIMD Force Step 23, t=11.50 fs, E_Pot=-378.86937768 Hartree, Unit is Hartree/Angstrom
 H     -0.0030637726     -0.0060441795     -0.0051588082
 C      0.0568446009     -0.0555744931      0.0026607428
 O     -0.0228334063      0.0240245332     -0.0005525438
 O     -0.0031653168      0.0023687657      0.0030023166
 H     -0.0307834060      0.0350281485     -0.0070937302
 H     -0.0160818124      0.0287080766      0.0114883158
 O      0.0336055143     -0.0343366142     -0.0076171239
 C     -0.0159320753      0.0021233080      0.0453064677
 O     -0.0030612870     -0.0067735912     -0.0411556366
 H      0.0044709612      0.0104760459     -0.0008800001
10
# ORCA AIMD Force Step 24, t=12.00 fs, E_Pot=-378.87028748 Hartree, Unit is Hartree/Angstrom
 H     -0.0120017583      0.0071202967     -0.0046548036
 C      0.0640695844     -0.0572096422      0.0185242073
 O     -0.0234654982      0.0230371698     -0.0044572460
 O     -0.0054206653     -0.0003342063     -0.0064668835
 H     -0.0259819807      0.0260082117     -0.0116392830
 H     -0.0052833816      0.0150613400      0.0124936852
 O      0.0217707170     -0.0176199253     -0.0043649074
 C      0.0028472371     -0.0177845419      0.0497712230
 O     -0.0112286363     -0.0019658397     -0.0486377706
 H     -0.0053056181      0.0236871372     -0.0005682213
10
# ORCA AIMD Force Step 25, t=12.50 fs, E_Pot=-378.87018779 Hartree, Unit is Hartree/Angstrom
 H     -0.0206365191      0.0199936727     -0.0040100244
 C      0.0702449244     -0.0573070400      0.0346421632
 O     -0.0236086561      0.0217102826     -0.0079774793
 O     -0.0094008696     -0.0014579610     -0.0169267872
 H     -0.0191736330      0.0146177759     -0.0157514563
 H      0.0045033783      0.0023531124      0.0130156099
 O      0.0109692055     -0.0016605374     -0.0001382834
 C      0.0191818764     -0.0347189461      0.0526598211
 O     -0.0186500365      0.0023011802     -0.0552900079
 H     -0.0134296703      0.0341684607     -0.0002235558
10
# ORCA AIMD Force Step 26, t=13.00 fs, E_Pot=-378.86918482 Hartree, Unit is Hartree/Angstrom
 H     -0.0280469112      0.0312655982     -0.0032555772
 C      0.0741509621     -0.0543783080      0.0506768351
 O     -0.0230491066      0.0200544106     -0.0106488884
 O     -0.0154015189     -0.0007755834     -0.0286329747
 H     -0.0100842608      0.0006035004     -0.0192308779
 H      0.0129009801     -0.0089095855      0.0130574306
 O      0.0016275046      0.0127181863      0.0046031018
 C      0.0330354568     -0.0482961203      0.0546577175
 O     -0.0253631369      0.0059624186     -0.0613009339
 H     -0.0197699691      0.0417554830      0.0000741671
10
# ORCA AIMD Force Step 27, t=13.50 fs, E_Pot=-378.86750927 Hartree, Unit is Hartree/Angstrom
 H     -0.0332303769      0.0394881923     -0.0024607005
 C      0.0749347456     -0.0472956954      0.0664528308
 O     -0.0218640118      0.0181024734     -0.0125627464
 O     -0.0234862104      0.0019276468     -0.0413882117
 H      0.0013405006     -0.0160480996     -0.0219441404
 H      0.0196228872     -0.0183225977      0.0126437051
 O     -0.0059703443      0.0252139624      0.0099875831
 C      0.0440108010     -0.0584949343      0.0551517310
 O     -0.0310698570      0.0089423854     -0.0662218040
 H     -0.0242881339      0.0464866666      0.0003417531
10
# ORCA AIMD Force Step 28, t=14.00 fs, E_Pot=-378.86545259 Hartree, Unit is Hartree/Angstrom
 H     -0.0354051820      0.0435557313     -0.0016819632
 C      0.0718733993     -0.0352435984      0.0816540194
 O     -0.0200326611      0.0158727211     -0.0136307487
 O     -0.0332618854      0.0062843749     -0.0549758672
 H      0.0146541960     -0.0347476452     -0.0238433611
 H      0.0247293607     -0.0259028526      0.0118425785
 O     -0.0118969865      0.0358134196      0.0158558375
 C      0.0520748755     -0.0654004011      0.0541157589
 O     -0.0356859215      0.0112456752     -0.0698906198
 H     -0.0270491950      0.0485225753      0.0005543658
10
# ORCA AIMD Force Step 29, t=14.50 fs, E_Pot=-378.86333416 Hartree, Unit is Hartree/Angstrom
 H     -0.0342227306      0.0429927688     -0.0009656855
 C      0.0647084517     -0.0180222507      0.0960483305
 O     -0.0175261973      0.0133880265     -0.0137393896
 O     -0.0436920166      0.0110874416     -0.0691608860
 H      0.0287083601     -0.0540656281     -0.0250263242
 H      0.0284648839     -0.0318996707      0.0107364450
 O     -0.0164427656      0.0446185118      0.0217721116
 C      0.0575150548     -0.0690950126      0.0521627973
 O     -0.0393590186      0.0129569560     -0.0724671084
 H     -0.0281540218      0.0480388575      0.0006397093
10
# ORCA AIMD Force Step 30, t=15.00 fs, E_Pot=-378.86149248 Hartree, Unit is Hartree/Angstrom
 H     -0.0298348983      0.0380721782     -0.0002802720
 C      0.0538233995      0.0032340800      0.1087246305
 O     -0.0143373812      0.0106412847     -0.0128678879
 O     -0.0528302405      0.0145688168     -0.0827123953
 H      0.0414326215     -0.0715564225     -0.0259295828
 H      0.0307742208     -0.0362006555      0.0093652244
 O     -0.0195534041      0.0518500210      0.0282384603
 C      0.0597227725     -0.0697209955      0.0479502381
 O     -0.0416526804      0.0140250517     -0.0731660895
 H     -0.0275444099      0.0450866411      0.0006776744
10
# ORCA AIMD Force Step 31, t=15.50 fs, E_Pot=-378.86025291 Hartree, Unit is Hartree/Angstrom
 H     -0.0228949392      0.0297664938      0.0004170671
 C      0.0399415030      0.0269927112      0.1189219383
 O     -0.0103912011      0.0076740894     -0.0107811785
 O     -0.0583870921      0.0143179878     -0.0946615587
 H      0.0503555961     -0.0842708929     -0.0270806811
 H      0.0319352911     -0.0391087875      0.0078031790
 O     -0.0215337622      0.0576045826      0.0347723568
 C      0.0589818826     -0.0672168315      0.0422880906
 O     -0.0427852666      0.0145392989     -0.0722633680
 H     -0.0252220117      0.0397013481      0.0005841544
10
# ORCA AIMD Force Step 32, t=16.00 fs, E_Pot=-378.85984292 Hartree, Unit is Hartree/Angstrom
 H     -0.0143583821      0.0194421634      0.0011690807
 C      0.0242039383      0.0512379255      0.1259986147
 O     -0.0057028959      0.0045469691     -0.0074018875
 O     -0.0584421360      0.0083774623     -0.1040479841
 H      0.0533833164     -0.0896850797     -0.0289613200
 H      0.0320970492     -0.0407737940      0.0061072944
 O     -0.0225521773      0.0619103406      0.0410712827
 C      0.0553691559     -0.0614863947      0.0356319006
 O     -0.0428731057      0.0145672281     -0.0698718164
 H     -0.0211247627      0.0318631794      0.0003048347
10
# ORCA AIMD Force Step 33, t=16.50 fs, E_Pot=-378.86027838 Hartree, Unit is Hartree/Angstrom
 H     -0.0052473974      0.0085171227      0.0020052803
 C      0.0079386012      0.0738186153      0.1294720446
 O     -0.0004132285      0.0013293402     -0.0028973341
 O     -0.0522894655     -0.0037538222     -0.1101280465
 H      0.0496577040     -0.0866675323     -0.0317242844
 H      0.0312550732     -0.0411482801      0.0043366725
 O     -0.0226318181      0.0646968882      0.0469807663
 C      0.0488947366     -0.0524777144      0.0282611013
 O     -0.0420016496      0.0141395217     -0.0661098336
 H     -0.0151625559      0.0215458608     -0.0001963664
10
# ORCA AIMD Force Step 34, t=17.00 fs, E_Pot=-378.86131836 Hartree, Unit is Hartree/Angstrom
 H      0.0035801815     -0.0018549801      0.0029395123
 C     -0.0078333355      0.0931591171      0.1291281419
 O      0.0052808879     -0.0019183783      0.0024421056
 O     -0.0409613441     -0.0206457175     -0.1128002653
 H      0.0402999975     -0.0763773339     -0.0350127437
 H      0.0293554658     -0.0401229973      0.0025427594
 O     -0.0216927887      0.0657545770      0.0523617258
 C      0.0393572063     -0.0402502673      0.0198957482
 O     -0.0399885465      0.0132764213     -0.0606013695
 H     -0.0073977243      0.0089795588     -0.0008956147
10
# ORCA AIMD Force Step 35, t=17.50 fs, E_Pot=-378.86256825 Hartree, Unit is Hartree/Angstrom
 H      0.0113447179     -0.0106401451      0.0039812828
 C     -0.0224664652      0.1077622940      0.1240033669
 O      0.0115633129     -0.0051113855      0.0091236406
 O     -0.0264286885     -0.0397583122     -0.1121495763
 H      0.0270333616     -0.0606778044     -0.0382286199
 H      0.0264517516     -0.0377228354      0.0007957767
 O     -0.0197146295      0.0650965047      0.0572328318
 C      0.0275740596     -0.0252717616      0.0117041736
 O     -0.0374581825      0.0119759489     -0.0545939423
 H      0.0021007623     -0.0056525036     -0.0018689339
10
# ORCA AIMD Force Step 36, t=18.00 fs, E_Pot=-378.86365283 Hartree, Unit is Hartree/Angstrom
 H      0.0177783024     -0.0175334399      0.0051168731
 C     -0.0356883303      0.1174386389      0.1144328309
 O      0.0181058819     -0.0081948518      0.0165843965
 O     -0.0112532846     -0.0579518255     -0.1087295422
 H      0.0127974490     -0.0429582588     -0.0405890605
 H      0.0223814024     -0.0336761111     -0.0008272584
 O     -0.0165163339      0.0621971190      0.0611625372
 C      0.0138810210     -0.0083704497      0.0032930635
 O     -0.0340642120      0.0102552811     -0.0474312127
 H      0.0125781041     -0.0212061022     -0.0030126272
10
# ORCA AIMD Force Step 37, t=18.50 fs, E_Pot=-378.86437303 Hartree, Unit is Hartree/Angstrom
 H      0.0226673720     -0.0223125457      0.0063061722
 C     -0.0473510126      0.1221557902      0.1006796907
 O      0.0248097175     -0.0111054584      0.0247228311
 O      0.0027627925     -0.0730919272     -0.1030726977
 H     -0.0005619976     -0.0254116841     -0.0416184266
 H      0.0170548663     -0.0278036509     -0.0022330355
 O     -0.0119911534      0.0567465303      0.0638744417
 C     -0.0002786448      0.0090511289     -0.0045518291
 O     -0.0301512776      0.0081221952     -0.0398352523
 H      0.0230393378     -0.0363503783     -0.0042718946
10
# ORCA AIMD Force Step 38, t=19.00 fs, E_Pot=-378.86473227 Hartree, Unit is Hartree/Angstrom
 H      0.0259159140     -0.0249438071      0.0074609369
 C     -0.0571219548      0.1222094527      0.0838607864
 O      0.0313789829     -0.0138039216      0.0329887963
 O      0.0145749449     -0.0840880812     -0.0957618324
 H     -0.0119049648     -0.0095177967     -0.0411651563
 H      0.0101521687     -0.0196179614     -0.0033294966
 O     -0.0057628294      0.0485501849      0.0658107317
 C     -0.0137566884      0.0250129985     -0.0126960083
 O     -0.0256396930      0.0055388608     -0.0317580975
 H      0.0321641199     -0.0493399288     -0.0054106603
10
# ORCA AIMD Force Step 39, t=19.50 fs, E_Pot=-378.86486780 Hartree, Unit is Hartree/Angstrom
 H      0.0275452630     -0.0255014959      0.0085570204
 C     -0.0651407856      0.1180988285      0.0644343734
 O      0.0377307229     -0.0162387930      0.0412942849
 O      0.0239641053     -0.0907346756     -0.0870332891
 H     -0.0209196590      0.0042079905     -0.0392885153
 H      0.0017030296     -0.0090898908     -0.0040191329
 O      0.0021100900      0.0373298022      0.0664038417
 C     -0.0245101944      0.0376028368     -0.0203816411
 O     -0.0207894969      0.0025543699     -0.0237076784
 H      0.0383069253     -0.0582289727     -0.0062592636
10
# ORCA AIMD Force Step 40, t=20.00 fs, E_Pot=-378.86493518 Hartree, Unit is Hartree/Angstrom
 H      0.0276238724     -0.0241359113      0.0095424394
 C     -0.0713005496      0.1104250359      0.0434935769
 O      0.0436595302     -0.0183893699      0.0492470831
 O      0.0310484003     -0.0934532231     -0.0773307660
 H     -0.0276882976      0.0157337566     -0.0361444179
 H     -0.0082745590      0.0038118374     -0.0042295502
 O      0.0115693362      0.0231730276      0.0656468015
 C     -0.0310681245      0.0451827931     -0.0276770769
 O     -0.0157347003     -0.0007895200     -0.0159555313
 H      0.0401650919     -0.0615584264     -0.0065925587
10
# ORCA AIMD Force Step 41, t=20.50 fs, E_Pot=-378.86501547 Hartree, Unit is Hartree/Angstrom
 H      0.0261823232     -0.0209418137      0.0103658131
 C     -0.0754209389      0.0996409950      0.0220363860
 O      0.0489778248     -0.0202280463      0.0565033986
 O      0.0361494482     -0.0929063183     -0.0670035114
 H     -0.0325181751      0.0253019694     -0.0319559919
 H     -0.0194068499      0.0185938209     -0.0039632385
 O      0.0221971689      0.0066786405      0.0635821294
 C     -0.0327385498      0.0470873053     -0.0346682560
 O     -0.0105742575     -0.0044250211     -0.0086500979
 H      0.0371520061     -0.0588015317     -0.0062466315
10
# ORCA AIMD Force Step 42, t=21.00 fs, E_Pot=-378.86509927 Hartree, Unit is Hartree/Angstrom
 H      0.0232696033     -0.0160299134      0.0109823377
 C     -0.0772938526      0.0861435018      0.0010216174
 O      0.0534947506     -0.0217236920      0.0627213679
 O      0.0396010118     -0.0897904487     -0.0564002035
 H     -0.0357504367      0.0332197855     -0.0269340648
 H     -0.0308337516      0.0340451758     -0.0033282588
 O      0.0330742154     -0.0108418221      0.0603292831
 C     -0.0297498503      0.0437916266     -0.0412646347
 O     -0.0054314774     -0.0082551675     -0.0019375219
 H      0.0296197875     -0.0505590460     -0.0051899225
10
# ORCA AIMD Force Step 43, t=21.50 fs, E_Pot=-378.86514820 Hartree, Unit is Hartree/Angstrom
 H      0.0189562001     -0.0095319557      0.0113522066
 C     -0.0767107288      0.0702678625     -0.0186911697
 O      0.0570218317     -0.0228359210      0.0675823910
 O      0.0416793026     -0.0847168394     -0.0458408461
 H     -0.0376756647      0.0397427742     -0.0212763912
 H     -0.0411682647      0.0481692474     -0.0025660538
 O      0.0427592763     -0.0272971063      0.0561543954
 C     -0.0231772492      0.0367041152     -0.0472817889
 O     -0.0004270411     -0.0121547814      0.0040973119
 H      0.0187423378     -0.0383473955     -0.0035300551
10
# ORCA AIMD Force Step 44, t=22.00 fs, E_Pot=-378.86516970 Hartree, Unit is Hartree/Angstrom
 H      0.0133697748     -0.0016446289      0.0114437818
 C     -0.0735286396      0.0523440519     -0.0363827594
 O      0.0593821565     -0.0235179539      0.0708060570
 O      0.0425835643     -0.0781652787     -0.0355944180
 H     -0.0385085549      0.0450366268     -0.0151706287
 H     -0.0487286023      0.0585106737     -0.0020337804
 O      0.0495292281     -0.0401481197      0.0514598412
 C     -0.0145325981      0.0276530657     -0.0524763500
 O      0.0043215429     -0.0159765768      0.0094240303
 H      0.0061121282     -0.0240918600     -0.0014757739
10