10
# ORCA AIMD Position Step 0, t=0.00 fs, E_Pot=-378.87723896 Hartree, Unit is Angstrom
 H     -2.5898860495     -0.5548979311     -0.4381717129
 C     -1.8883686880     -1.4254214536     -0.4362223298
 O     -1.2200390767     -1.6934440470      0.5682407369
 O     -1.8866384608     -2.0650807788     -1.5750642937
 H     -1.2259610993     -2.8659555634     -1.5377286697
 H     -0.2355286972     -2.8823536232      0.6351176207
 O      0.4246675954     -3.6836300881      0.6725367249
 C      0.4258180534     -4.3236834913     -0.4661098869
 O     -0.2418904968     -4.0550765081     -1.4707917443
 H      1.1261268869     -5.1952366441     -0.4635664653
10
# ORCA AIMD Position Step 1, t=0.50 fs, E_Pot=-378.87654992 Hartree, Unit is Angstrom
 H     -2.5804945946     -0.5549861508     -0.4334917523
 C     -1.8901661625     -1.4185793080     -0.4303488626
 O     -1.2180140979     -1.6933662495      0.5674366176
 O     -1.8838120931     -2.0684245986     -1.5735928323
 H     -1.2380155332     -2.8564982565     -1.5444255773
 H     -0.2466304192     -2.8724024341      0.6297499559
 O      0.4248832493     -3.6853442105      0.6703835393
 C      0.4275589476     -4.3255500166     -0.4675576776
 O     -0.2462337120     -4.0537533605     -1.4718052255
 H      1.1290778441     -5.2158008484     -0.4692474327
10
# ORCA AIMD Position Step 2, t=1.00 fs, E_Pot=-378.87462908 Hartree, Unit is Angstrom
 H     -2.5716587805     -0.5544311185     -0.4288471528
 C     -1.8918980631     -1.4118582865     -0.4245625067
 O     -1.2159835989     -1.6932815896      0.5666578500
 O     -1.8810575559     -2.0716619755     -1.5720874108
 H     -1.2492622590     -2.8479299241     -1.5509088504
 H     -0.2571131460     -2.8632001318      0.6243735532
 O      0.4250684036     -3.6870192335      0.6682259306
 C      0.4293026528     -4.3274669253     -0.4690451568
 O     -0.2505485898     -4.0524473471     -1.4727926116
 H      1.1314296814     -5.2354738321     -0.4748724095
10
# ORCA AIMD Position Step 3, t=1.50 fs, E_Pot=-378.87189247 Hartree, Unit is Angstrom
 H     -2.5639187163     -0.5525849912     -0.4242710062
 C     -1.8934987523     -1.4053664636     -0.4189288185
 O     -1.2139401029     -1.6931833318      0.5659254320
 O     -1.8784486509     -2.0746862998     -1.5705171668
 H     -1.2588015357     -2.8412717758     -1.5569809001
 H     -0.2665073244     -2.8553152679      0.6189706146
 O      0.4252011864     -3.6886260617      0.6660614219
 C      0.4310397885     -4.3294794211     -0.4706304610
 O     -0.2548108768     -4.0511734170     -1.4737236023
 H      1.1326977908     -5.2535108132     -0.4803789485
10
# ORCA AIMD Position Step 4, t=2.00 fs, E_Pot=-378.86895473 Hartree, Unit is Angstrom
 H     -2.5577414460     -0.5488622176     -0.4197871054
 C     -1.8949114931     -1.3991937887     -0.4135026645
 O     -1.2118727659     -1.6930642348      0.5652599020
 O     -1.8760533378     -2.0773981885     -1.5688500001
 H     -1.2657745322     -2.8375155922     -1.5624709567
 H     -0.2744195199     -2.8492228139      0.6135244221
 O      0.4252637395     -3.6901479311      0.6638752416
 C      0.4327623772     -4.3316217688     -0.4723508102
 O     -0.2590074354     -4.0499435285     -1.4745772169
 H      1.1324974108     -5.2693191097     -0.4857340685
10
# ORCA AIMD Position Step 5, t=2.50 fs, E_Pot=-378.86646159 Hartree, Unit is Angstrom
 H     -2.5534674024     -0.5428120889     -0.4154091555
 C     -1.8960918875     -1.3934084320     -0.4083296358
 O     -1.2097672096     -1.6929174863      0.5646809407
 O     -1.8739259052     -2.0797148264     -1.5670519434
 H     -1.2694874291     -2.8374646767     -1.5672299018
 H     -0.2805831269     -2.8452439439      0.6080139135
 O      0.4252453354     -3.6915768048      0.6616535233
 C      0.4344551185     -4.3339226898     -0.4742515548
 O     -0.2631313194     -4.0487677042     -1.4753339800
 H      1.1305553097     -5.2824614869     -0.4909090213
10
# ORCA AIMD Position Step 6, t=3.00 fs, E_Pot=-378.86487624 Hartree, Unit is Angstrom
 H     -2.5512769105     -0.5341808197     -0.4111476443
 C     -1.8970090965     -1.3880580236     -0.4034495811
 O     -1.2076081231     -1.6927362987      0.5642081158
 O     -1.8721018726     -2.0815777786     -1.5650908702
 H     -1.2695363431     -2.8415655778     -1.5711158603
 H     -0.2848079803     -2.8436008800      0.6024251805
 O      0.4251392709     -3.6929116847      0.6593788563
 C      0.4361016669     -4.3364026760     -0.4763651344
 O     -0.2671808584     -4.0476548521     -1.4759820453
 H      1.1266856888     -5.2926208953     -0.4958920923
10
# ORCA AIMD Position Step 7, t=3.50 fs, E_Pot=-378.86431785 Hartree, Unit is Angstrom
 H     -2.5511559278     -0.5229834476     -0.4070174038
 C     -1.8976477044     -1.3831749006     -0.3989063068
 O     -1.2053840189     -1.6925144645      0.5638605705
 O     -1.8705970838     -2.0829550295     -1.5629398078
 H     -1.2658536557     -2.8498353743     -1.5739787883
 H     -0.2869522336     -2.8444452823      0.5967615425
 O      0.4249430311     -3.6941549085      0.6570362657
 C      0.4376726697     -4.3390655131     -0.4787202474
 O     -0.2711473203     -4.0466157326     -1.4765078975
 H      1.1208015809     -5.2995819226     -0.5006666599
10
# ORCA AIMD Position Step 8, t=4.00 fs, E_Pot=-378.86455816 Hartree, Unit is Angstrom
 H     -2.5528851164     -0.5095409195     -0.4030406146
 C     -1.8980087252     -1.3787806234     -0.3947539674
 O     -1.2030908190     -1.6922466946      0.5636575946
 O     -1.8694071658     -2.0838431110     -1.5605815450
 H     -1.2587575104     -2.8617891998     -1.5756536471
 H     -0.2869232365     -2.8478510509      0.5910546961
 O      0.4246583119     -3.6953105260      0.6546158767
 C      0.4391289416     -4.3418941621     -0.4813275776
 O     -0.2750120841     -4.0456637479     -1.4769016245
 H      1.1129315336     -5.3032427080     -0.5052146194
10
# ORCA AIMD Position Step 9, t=4.50 fs, E_Pot=-378.86515641 Hartree, Unit is Angstrom
 H     -2.5560688532     -0.4944362589     -0.3992419312
 C     -1.8981067347     -1.3748860870     -0.3910519600
 O     -1.2007308209     -1.6919290441      0.5636167119
 O     -1.8685085671     -2.0842656501     -1.5580074766
 H     -1.2489192814     -2.8764844029     -1.5759688438
 H     -0.2847297753     -2.8537543090      0.5853587258
 O      0.4242926263     -3.6963860808      0.6521137950
 C      0.4404228303     -4.3448526766     -0.4841843659
 O     -0.2787492010     -4.0448140737     -1.4771567016
 H      1.1032331237     -5.3036522643     -0.5095185828
10
# ORCA AIMD Position Step 10, t=5.00 fs, E_Pot=-378.86567605 Hartree, Unit is Angstrom
 H     -2.5601787150     -0.4784392062     -0.3956411076
 C     -1.8979700932     -1.3714811847     -0.3878519530
 O     -1.1983089496     -1.6915582886      0.5637522450
 O     -1.8678645676     -2.0842658209     -1.5552152336
 H     -1.2371831229     -2.8927611700     -1.5747665383
 H     -0.2804669838     -2.8619807934      0.5797382356
 O      0.4238586466     -3.6973947883      0.6495275964
 C      0.4415017479     -4.3478891561     -0.4872764802
 O     -0.2823346034     -4.0440804780     -1.4772722786
 H      1.0919939836     -5.3010514185     -0.5135739231
10
# ORCA AIMD Position Step 11, t=5.50 fs, E_Pot=-378.86581245 Hartree, Unit is Angstrom
 H     -2.5646327655     -0.4623881209     -0.3922507331
 C     -1.8976333879     -1.3685389470     -0.3851917314
 O     -1.1958303390     -1.6911311698      0.5640741177
 O     -1.8674330884     -2.0838949991     -1.5522041787
 H     -1.2244163888     -2.9094413241     -1.5719153927
 H     -0.2743244017     -2.8722423587      0.5742573021
 O      0.4233741680     -3.6983573493      0.6468533843
 C      0.4423099870     -4.3509395267     -0.4905832892
 O     -0.2857509198     -4.0434741911     -1.4772528219
 H      1.0796204320     -5.2958824492     -0.5173939492
10
# ORCA AIMD Position Step 12, t=6.00 fs, E_Pot=-378.86542231 Hartree, Unit is Angstrom
 H     -2.5688630996     -0.4470955975     -0.3890778057
 C     -1.8971307951     -1.3660224246     -0.3830937688
 O     -1.1932994966     -1.6906437342      0.5645877548
 O     -1.8671734579     -2.0832032415     -1.5489728917
 H     -1.2114005865     -2.9254723275     -1.5673185134
 H     -0.2665852524     -2.8841413149      0.5689728166
 O      0.4228622014     -3.6993025841      0.6440849056
 C      0.4427889639     -4.3539295639     -0.4940810124
 O     -0.2889887578     -4.0430037164     -1.4771071766
 H      1.0666262828     -5.2887835457     -0.5210100293
10
# ORCA AIMD Position Step 13, t=6.50 fs, E_Pot=-378.86450021 Hartree, Unit is Angstrom
 H     -2.5723626212     -0.4332851502     -0.3861267445
 C     -1.8964909641     -1.3638915630     -0.3815660759
 O     -1.1907202504     -1.6900908404      0.5652944285
 O     -1.8670502394     -2.0822338741     -1.5455179178
 H     -1.1987830799     -2.9399912295     -1.5609163560
 H     -0.2576275390     -2.8971708666      0.5639300463
 O      0.4223513004     -3.7002677384      0.6412136195
 C      0.4428772874     -4.3567766027     -0.4977448909
 O     -0.2920462480     -4.0426751181     -1.4768474660
 H      1.0536181411     -5.2805697372     -0.5244691659
10
# ORCA AIMD Position Step 14, t=7.00 fs, E_Pot=-378.86315863 Hartree, Unit is Angstrom
 H     -2.5747102766     -0.4215573314     -0.3834020819
 C     -1.8957338088     -1.3621082100     -0.3806038433
 O     -1.1880957750     -1.6894658294      0.5661918785
 O     -1.8670344792     -2.0810215627     -1.5418331330
 H     -1.1870729915     -2.9523307314     -1.5526854165
 H     -0.2479252768     -2.9107144012      0.5591592695
 O      0.4218758706     -3.7012986316      0.6382289808
 C      0.4425117125     -4.3593925071     -0.5015507726
 O     -0.2949282058     -4.0424923846     -1.4764881324
 H      1.0412701530     -5.2721941228     -0.5278304293
10
# ORCA AIMD Position Step 15, t=7.50 fs, E_Pot=-378.86162572 Hartree, Unit is Angstrom
 H     -2.5755794373     -0.4123788934     -0.3809103987
 C     -1.8948689605     -1.3606392436     -0.3801914426
 O     -1.1854285869     -1.6887603762      0.5672750889
 O     -1.8671034126     -2.0795925248     -1.5379095635
 H     -1.1766610914     -2.9619935900     -1.5426345376
 H     -0.2380447657     -2.9240495796      0.5546741182
 O      0.4214760974     -3.7024493098      0.6351187793
 C      0.4416297372     -4.3616888687     -0.5054760441
 O     -0.2976453028     -4.0424577056     -1.4760453138
 H      1.0302824599     -5.2646810793     -0.5311605799
10
# ORCA AIMD Position Step 16, t=8.00 fs, E_Pot=-378.86023918 Hartree, Unit is Angstrom
 H     -2.5747381109     -0.4060827269     -0.3786589329
 C     -1.8938975744     -1.3594583770     -0.3803082324
 O     -1.1827199248     -1.6879648180      0.5685389917
 O     -1.8672394153     -2.0779658326     -1.5337359125
 H     -1.1678481084     -2.9686168242     -1.5308033127
 H     -0.2286091087     -2.9363891219      0.5504754736
 O      0.4211961606     -3.7037804131      0.6318680685
 C      0.4401743380     -4.3635829804     -0.5094963743
 O     -0.3002127748     -4.0425716548     -1.4755366987
 H      1.0213206629     -5.2590257806     -0.5345304280
10
# ORCA AIMD Position Step 17, t=8.50 fs, E_Pot=-378.85939738 Hartree, Unit is Angstrom
 H     -2.5720417575     -0.4028899344     -0.3766673700
 C     -1.8928070501     -1.3585478325     -0.3809172172
 O     -1.1799753093     -1.6870685143      0.5699714343
 O     -1.8674290955     -2.0761572614     -1.5293044079
 H     -1.1608753400     -2.9719353418     -1.5172684239
 H     -0.2203261441     -2.9468436287      0.5465551327
 O      0.4210844841     -3.7053547100      0.6284678387
 C      0.4381018142     -4.3650113548     -0.5135910928
 O     -0.3026484875     -4.0428325584     -1.4749817786
 H      1.0149499923     -5.2560787489     -0.5380006244
10
# ORCA AIMD Position Step 18, t=9.00 fs, E_Pot=-378.85945513 Hartree, Unit is Angstrom
 H     -2.5674417039     -0.4028988648     -0.3749579538
 C     -1.8915802973     -1.3578989663     -0.3819777121
 O     -1.1772046180     -1.6860623211      0.5715582229
 O     -1.8676613184     -2.0741829795     -1.5246158914
 H     -1.1559529795     -2.9717579536     -1.5021683097
 H     -0.2138675500     -2.9545655874      0.5429147151
 O      0.4211863440     -3.7072284220      0.6249148153
 C      0.4353941773     -4.3659362791     -0.5177284256
 O     -0.3049697415     -4.0432357345     -1.4744036639
 H      1.0115503626     -5.2564031792     -0.5416180850
10
# ORCA AIMD Position Step 19, t=9.50 fs, E_Pot=-378.86057172 Hartree, Unit is Angstrom
 H     -2.5610055560     -0.4060624696     -0.3735588197
 C     -1.8901962150     -1.3575110471     -0.3834358970
 O     -1.1744268156     -1.6849408151      0.5732781113
 O     -1.8679263324     -2.0720648244     -1.5196897490
 H     -1.1532548789     -2.9679874851     -1.4857313778
 H     -0.2097853294     -2.9588513124      0.5395801776
 O      0.4215368683     -3.7094391225      0.6212185519
 C      0.4320717652     -4.3663576046     -0.5218632663
 O     -0.3071910051     -4.0437716035     -1.4738296442
 H      1.0112397833     -5.2601526194     -0.5454045732
10
# ORCA AIMD Position Step 20, t=10.00 fs, E_Pot=-378.86260262 Hartree, Unit is Angstrom
 H     -2.5529316821     -0.4121570656     -0.3724974484
 C     -1.8886315264     -1.3573884732     -0.3852234947
 O     -1.1716679899     -1.6837033499      0.5751032395
 O     -1.8682152327     -2.0698311818     -1.5145639251
 H     -1.1529006949     -2.9606456942     -1.4682772281
 H     -0.2083883172     -2.9592948521      0.5366091388
 O      0.4221525439     -3.7119957511      0.6174007440
 C      0.4281991195     -4.3663201159     -0.5259393655
 O     -0.3093259796     -4.0444246846     -1.4732911168
 H      1.0138272113     -5.2670124463     -0.5493560081
10
# ORCA AIMD Position Step 21, t=10.50 fs, E_Pot=-378.86511686 Hartree, Unit is Angstrom
 H     -2.5435429015     -0.4207750896     -0.3717943318
 C     -1.8868595051     -1.3575384798     -0.3872596147
 O     -1.1689558524     -1.6823526233      0.5770018438
 O     -1.8685207472     -2.0675128459     -1.5092862321
 H     -1.1549250276     -2.9498973591     -1.4501825323
 H     -0.2096493574     -2.9559050585      0.5340885044
 O      0.4230263548     -3.7148765348      0.6134872488
 C      0.4238756594     -4.3659086044     -0.5298979024
 O     -0.3113912395     -4.0451745696     -1.4728210544
 H      1.0188386470     -5.2762579453     -0.5534509215
10
# ORCA AIMD Position Step 22, t=11.00 fs, E_Pot=-378.86754512 Hartree, Unit is Angstrom
 H     -2.5332716765     -0.4313323047     -0.3714567599
 C     -1.8848493082     -1.3579706007     -0.3894573096
 O     -1.1663133125     -1.6808933937      0.5789439024
 O     -1.8688376307     -2.0651400266     -1.5039065472
 H     -1.1592935978     -2.9360083758     -1.4318373051
 H     -0.2132351165     -2.9490736918      0.5321208172
 O      0.4241304341     -3.7180335253      0.6095043729
 C      0.4192226236     -4.3652383571     -0.5336866192
 O     -0.3134092709     -4.0459981646     -1.4724536988
 H      1.0256063592     -5.2869009429     -0.5576591633
10
# ORCA AIMD Position Step 23, t=11.50 fs, E_Pot=-378.86937768 Hartree, Unit is Angstrom
 H     -2.5226359181     -0.4431009605     -0.3714781616
 C     -1.8825655083     -1.3586965261     -0.3917269250
 O     -1.1637570254     -1.6793311144      0.5809026691
 O     -1.8691641042     -2.0627387780     -1.4984726089
 H     -1.1658888341     -2.9193499464     -1.4136186952
 H     -0.2185774668     -2.9394926174      0.5308107913
 O      0.4254218862     -3.7214017655      0.6054746028
 C      0.4143663990     -4.3644359454     -0.5372618235
 O     -0.3154072633     -4.0468718628     -1.4722223728
 H      1.0333829323     -5.2978642374     -0.5619495699
10
# ORCA AIMD Position Step 24, t=12.00 fs, E_Pot=-378.87028748 Hartree, Unit is Angstrom
 H     -2.5122075028     -0.4552542885     -0.3718353465
 C     -1.8799728800     -1.3597255010     -0.3939803165
 O     -1.1612962822     -1.6776714713      0.5828577122
 O     -1.8695033159     -2.0603296019     -1.4930304017
 H     -1.1744829277     -2.9004238480     -1.3958753910
 H     -0.2249626449     -2.9280499959      0.5302495421
 O      0.4268501960     -3.7249083163      0.6014165931
 C      0.4094267553     -4.3636225317     -0.5405868692
 O     -0.3174163235     -4.0477726898     -1.4721600014
 H      1.0414447439     -5.3081374624     -0.5662940650
10
# ORCA AIMD Position Step 25, t=12.50 fs, E_Pot=-378.87018779 Hartree, Unit is Angstrom
 H     -2.5025763987     -0.4669252047     -0.3724948358
 C     -1.8770344809     -1.3610652489     -0.3961290104
 O     -1.1589356056     -1.6759200021      0.5847914065
 O     -1.8698642151     -2.0579255874     -1.4876232697
 H     -1.1847540230     -2.8798353020     -1.3789173256
 H     -0.2316815390     -2.9156454112      0.5305020825
 O      0.4283655043     -3.7284815791      0.5973470766
 C      0.4045104330     -4.3629075105     -0.5436349068
 O     -0.3194682521     -4.0486801578     -1.4722971126
 H      1.0491486556     -5.3168533070     -0.5706686943
10
# ORCA AIMD Position Step 26, t=13.00 fs, E_Pot=-378.86918482 Hartree, Unit is Angstrom
 H     -2.4943017249     -0.4772786408     -0.3734143287
 C     -1.8737166283     -1.3627160548     -0.3980854920
 O     -1.1566750508     -1.6740820002      0.5866896652
 O     -1.8702631455     -2.0555309445     -1.4822931672
 H     -1.1962582564     -2.8583246382     -1.3630081619
 H     -0.2380979087     -2.9031052229      0.5316012004
 O      0.4299236435     -3.7320566043      0.5932827392
 C      0.3997058032     -4.3623830964     -0.5463910692
 O     -0.3215937432     -4.0495769103     -1.4726607030
 H      1.0559678125     -5.3233334814     -0.5750516936
10
# ORCA AIMD Position Step 27, t=13.50 fs, E_Pot=-378.86750927 Hartree, Unit is Angstrom
 H     -2.4878561340     -0.4855926632     -0.3745454290
 C     -1.8699948779     -1.3646633511     -0.3997643533
 O     -1.1545098880     -1.6721624283      0.5885435314
 O     -1.8707251006     -2.0531403817     -1.4770825130
 H     -1.2084147016     -2.8367827574     -1.3483569839
 H     -0.2436719596     -2.8911497944      0.5335500018
 O      0.4314878736     -3.7355781197      0.5892388084
 C      0.3950834745     -4.3621227577     -0.5488475605
 O     -0.3238224718     -4.0504488694     -1.4732756032
 H      1.0614972981     -5.3270927584     -0.5794282192
10
# ORCA AIMD Position Step 28, t=14.00 fs, E_Pot=-378.86545259 Hartree, Unit is Angstrom
 H     -2.4835665524     -0.4913456218     -0.3758385321
 C     -1.8658578857     -1.3668721435     -0.4010822526
 O     -1.1524313252     -1.6701657290      0.5903485299
 O     -1.8712841561     -2.0507384105     -1.4720341658
 H     -1.2205015633     -2.8162551503     -1.3351143626
 H     -0.2479754483     -2.8803708680      0.5363255687
 O      0.4330298784     -3.7390012642      0.5852299716
 C      0.3906950748     -4.3621819343     -0.5510060298
 O     -0.3261820187     -4.0512853892     -1.4741632824
 H      1.0654521493     -5.3278282638     -0.5837888720
10
# ORCA AIMD Position Step 29, t=14.50 fs, E_Pot=-378.86333416 Hartree, Unit is Angstrom
 H     -2.4815698815     -0.4942797285     -0.3772465536
 C     -1.8613107769     -1.3692827605     -0.4019583119
 O     -1.1504267938     -1.6680957883      0.5921047191
 O     -1.8719821824     -2.0483009918     -1.4671916087
 H     -1.2316806600     -2.7979125609     -1.3233744452
 H     -0.2506826466     -2.8712388817      0.5398849363
 O      0.4345291485     -3.7422908871      0.5812702702
 C      0.3865742585     -4.3625994622     -0.5528768152
 O     -0.3286977075     -4.0520790282     -1.4753418218
 H      1.0676579526     -5.3254007642     -0.5881308071
10
# ORCA AIMD Position Step 30, t=15.00 fs, E_Pot=-378.86149248 Hartree, Unit is Angstrom
 H     -2.4817954905     -0.4944250518     -0.3787275521
 C     -1.8563769222     -1.3718091159     -0.4023137909
 O     -1.1484803601     -1.6659562131      0.5938166593
 O     -1.8728649834     -2.0458008329     -1.4625998260
 H     -1.2410622081     -2.7829742528     -1.3131875412
 H     -0.2515487940     -2.8641273361      0.5441708376
 O      0.4359712382     -3.7454198857      0.5773724357
 C      0.3827399531     -4.3633988316     -0.5544746621
 O     -0.3313930790     -4.0528248892     -1.4768269723
 H      1.0680395021     -5.3198171448     -0.5924613898
10
# ORCA AIMD Position Step 31, t=15.50 fs, E_Pot=-378.86025291 Hartree, Unit is Angstrom
 H     -2.4839757412     -0.4920803705     -0.3802416081
 C     -1.8510984456     -1.3743428140     -0.4020756934
 O     -1.1465736977     -1.6637515034      0.5954925568
 O     -1.8739743751     -2.0432157632     -1.4583034374
 H     -1.2478256230     -2.7725701666     -1.3045962465
 H     -0.2504096789     -2.8593140998      0.5491121889
 O      0.4373470393     -3.7483661999      0.5735522955
 C      0.3791955405     -4.3645890476     -0.5558250469
 O     -0.3342869677     -4.0535203366     -1.4786285435
 H      1.0666223330     -5.3112275655     -0.5967906579
10
# ORCA AIMD Position Step 32, t=16.00 fs, E_Pot=-378.85984292 Hartree, Unit is Angstrom
 H     -2.4876814882     -0.4877581427     -0.3817462797
 C     -1.8455378794     -1.3767581415     -0.4011810436
 O     -1.1446873338     -1.6614890080      0.5971438129
 O     -1.8753378657     -2.0405409837     -1.4543468158
 H     -1.2513707465     -2.7675627761     -1.2976770317
 H     -0.2471652364     -2.8570055639      0.5546231980
 O      0.4386502694     -3.7511096856      0.5698304068
 C      0.3759333755     -4.3661628632     -0.5569589634
 O     -0.3373917058     -4.0541640196     -1.4807496785
 H      1.0635362779     -5.2999357114     -0.6011329440
10
# ORCA AIMD Position Step 33, t=16.50 fs, E_Pot=-378.86027838 Hartree, Unit is Angstrom
 H     -2.4923718847     -0.4821109175     -0.3831922840
 C     -1.8397780607     -1.3789205514     -0.3995830894
 O     -1.1428020497     -1.6591808132      0.5987841786
 O     -1.8769587799     -2.0377997883     -1.4507725008
 H     -1.2514612414     -2.7683705247     -1.2925725351
 H     -0.2417796789     -2.8573404008      0.5605998664
 O      0.4398759405     -3.7536303259      0.5662337129
 C      0.3729367577     -4.3680934243     -0.5579104989
 O     -0.3407103426     -4.0547552460     -1.4831844272
 H      1.0590297242     -5.2864222613     -0.6055069549
10
# ORCA AIMD Position Step 34, t=17.00 fs, E_Pot=-378.86131836 Hartree, Unit is Angstrom
 H     -2.4974533644     -0.4758488926     -0.3845217393
 C     -1.8339161187     -1.3806994792     -0.3972577687
 O     -1.1408993148     -1.6568436856      0.6004292636
 O     -1.8788117754     -2.0350462208     -1.4476159775
 H     -1.2483026878     -2.7748586452     -1.2894924487
 H     -0.2342938403     -2.8603716879      0.5669210821
 O      0.4410207435     -3.7559098019      0.5627941990
 C      0.3701782508     -4.3703318363     -0.5587164765
 O     -0.3442358884     -4.0552941758     -1.4859165132
 H      1.0534850336     -5.2713613931     -0.6099382577
10
# ORCA AIMD Position Step 35, t=17.50 fs, E_Pot=-378.86256825 Hartree, Unit is Angstrom
 H     -2.5023392192     -0.4696608113     -0.3856691032
 C     -1.8280528656     -1.3819808273     -0.3942065599
 O     -1.1389604597     -1.6544968037      0.6020968321
 O     -1.8808474511     -2.0323568743     -1.4449001328
 H     -1.2424861641     -2.7863879938     -1.2886776179
 H     -0.2248327063     -2.8660484146      0.5734562487
 O      0.4420848611     -3.7579357130      0.5595443341
 C      0.3676147975     -4.3728079469     -0.5594194058
 O     -0.3479527426     -4.0557825031     -1.4889187996
 H      1.0474149250     -5.2555998299     -0.6144615738
10
# ORCA AIMD Position Step 36, t=18.00 fs, E_Pot=-378.86365283 Hartree, Unit is Angstrom
 H     -2.5065093166     -0.4641358680     -0.3865623960
 C     -1.8222828769     -1.3826782973     -0.3904604565
 O     -1.1369641828     -1.6521590082      0.6038104083
 O     -1.8830021829     -2.0298173764     -1.4426317498
 H     -1.2348752583     -2.8019371651     -1.2903542916
 H     -0.2135966216     -2.8742166447      0.5800766051
 O      0.4430733042     -3.7597041842      0.5565133402
 C      0.3651893753     -4.3754351077     -0.5600617869
 O     -0.3518425685     -4.0562240565     -1.4921609032
 H      1.0414510845     -5.2401271069     -0.6191299048
10
# ORCA AIMD Position Step 37, t=18.50 fs, E_Pot=-378.86437303 Hartree, Unit is Angstrom
 H     -2.5095334864     -0.4597364543     -0.3871248699
 C     -1.8166893814     -1.3827352207     -0.3860757393
 O     -1.1348869799     -1.6498472486      0.6055977342
 O     -1.8852101990     -2.0275077220     -1.4408027573
 H     -1.2264047943     -2.8203390132     -1.2946837846
 H     -0.2008640383     -2.8846080234      0.5866646386
 O      0.4439971065     -3.7612228473      0.5537237775
 C      0.3628320082     -4.3781166708     -0.5606882419
 O     -0.3558850856     -4.0566249107     -1.4956085105
 H      1.0362881376     -5.2259869492     -0.6240099831
10
# ORCA AIMD Position Step 38, t=19.00 fs, E_Pot=-378.86473227 Hartree, Unit is Angstrom
 H     -2.5110865697     -0.4567820278     -0.3872774784
 C     -1.8113428514     -1.3821239912     -0.3811307682
 O     -1.1327033980     -1.6475761082      0.6074904567
 O     -1.8874116355     -2.0254932717     -1.4393931388
 H     -1.2179526767     -2.8404371017     -1.3017356018
 H     -0.1869922103     -2.8968342720      0.5931213316
 O      0.4448736554     -3.7625117294      0.5511905263
 C      0.3604680270     -4.3807545077     -0.5613409510
 O     -0.3600601630     -4.0569932723     -1.4992271661
 H      1.0326159067     -5.2141858305     -0.6291790696
10
# ORCA AIMD Position Step 39, t=19.50 fs, E_Pot=-378.86486780 Hartree, Unit is Angstrom
 H     -2.5109532284     -0.4554484389     -0.3869441119
 C     -1.8063001984     -1.3808434050     -0.3757192595
 O     -1.1303874934     -1.6453580209      0.6095216472
 O     -1.8895567418     -2.0238208622     -1.4383744571
 H     -1.2102629015     -2.8611875218     -1.3114813458
 H     -0.1724366447     -2.9103585044      0.5993713489
 O      0.4457279415     -3.7636033272      0.5489234434
 C      0.3580250363     -4.3832597540     -0.5620641380
 O     -0.3643471761     -4.0573394799     -1.5029819909
 H      1.0310339055     -5.2055812931     -0.6347090093
10
# ORCA AIMD Position Step 40, t=20.00 fs, E_Pot=-378.86493518 Hartree, Unit is Angstrom
 H     -2.5090248526     -0.4557747468     -0.3860527213
 C     -1.8016070078     -1.3789152857     -0.3699481442
 O     -1.1279135880     -1.6432036277      0.6117250868
 O     -1.8916063413     -2.0225187096     -1.4377117128
 H     -1.2039259530     -2.8816915510     -1.3238001967
 H     -0.1577506069     -2.9244931568      0.6053678528
 O      0.4465920348     -3.7645431356      0.5469259341
 C      0.3554447396     -4.3855627279     -0.5628997498
 O     -0.3687252813     -4.0576756647     -1.5068391749
 H      1.0319458729     -5.2007594403     -0.6406542135
10
# ORCA AIMD Position Step 41, t=20.50 fs, E_Pot=-378.86501547 Hartree, Unit is Angstrom
 H     -2.5052943503     -0.4576740223     -0.3845385337
 C     -1.7972981247     -1.3763810729     -0.3639323607
 O     -1.1252575248     -1.6411221685      0.6141333006
 O     -1.8935309167     -2.0215986415     -1.4373656281
 H     -1.1993855265     -2.9011947599     -1.3384886544
 H     -0.1435862832     -2.9383962107      0.6110958909
 O      0.4475046455     -3.7653889325      0.5451955384
 C      0.3526915016     -4.3876213722     -0.5638876917
 O     -0.3731731701     -4.0580154892     -1.5107664313
 H      1.0354758874     -5.1999427222     -0.6470360078
10
# ORCA AIMD Position Step 42, t=21.00 fs, E_Pot=-378.86509927 Hartree, Unit is Angstrom
 H     -2.4998542074     -0.4609396253     -0.3823474459
 C     -1.7933971607     -1.3732994429     -0.3577898736
 O     -1.1223976761     -1.6391215886      0.6167759340
 O     -1.8953090976     -2.0210589773     -1.4372942166
 H     -1.1969589751     -2.9190696955     -1.3552742338
 H     -0.1306716821     -2.9511022412      0.6165716428
 O      0.4485093126     -3.7662081895      0.5437243413
 C      0.3497564164     -4.3894246892     -0.5650662070
 O     -0.3776690603     -4.0583738284     -1.5147332527
 H      1.0414300130     -5.2029560951     -0.6538313674
10
# ORCA AIMD Position Step 43, t=21.50 fs, E_Pot=-378.86514820 Hartree, Unit is Angstrom
 H     -2.4928933223     -0.4652524058     -0.3794389618
 C     -1.7899153140     -1.3697441111     -0.3516363457
 O     -1.1193157223     -1.6372083952      0.6196783496
 O     -1.8969263184     -2.0208873720     -1.4374542320
 H     -1.1968592496     -2.9347963862     -1.3738293550
 H     -0.1197542920     -2.9616016654      0.6218354368
 O      0.4496506226     -3.7670726736      0.5424994546
 C      0.3466560757     -4.3909901896     -0.5664713716
 O     -0.3821912365     -4.0587663685     -1.5187115497
 H      1.0493190234     -5.2092658401     -0.6609708625
10
# ORCA AIMD Position Step 44, t=22.00 fs, E_Pot=-378.86516970 Hartree, Unit is Angstrom
 H     -2.4846921136     -0.4701895110     -0.3757886824
 C     -1.7868501015     -1.3658018332     -0.3455801615
 O     -1.1159973147     -1.6353874207      0.6228604207
 O     -1.8983737503     -2.0210633278     -1.4378025140
 H     -1.1992137221     -2.9479465131     -1.3937850609
 H     -0.1115101077     -2.9689714957      0.6269362122
 O      0.4509683235     -3.7680498708      0.5415040743
 C      0.3434265882     -4.3923562622     -0.5681361278
 O     -0.3867187220     -4.0592091033     -1.5226761593
 H      1.0584351559     -5.2180785819     -0.6683459284
10
# ORCA AIMD Position Step 45, t=22.50 fs, E_Pot=-378.86523028 Hartree, Unit is Angstrom
 H     -2.4756141241     -0.4752372837     -0.3713903410
 C     -1.7841846555     -1.3615705800     -0.3397185345
 O     -1.1124328214     -1.6336616612      0.6263353643