10
# ORCA AIMD Position Step 725, t=362.50 fs, E_Pot=-378.87199723 Hartree, Unit is Angstrom
 H      0.1938280161     -0.7450362313      1.4249253310
 C     -0.1793932630     -1.5272841755      0.7459813829
 O      0.6062984135     -2.3173655756      0.2346367705
 O     -1.4684382262     -1.5088089231      0.5854700818
 H     -1.6871036200     -2.3063204368     -0.0550439097
 H      0.1871167142     -3.4795124017     -0.7646745537
 O     -0.0087598622     -4.2159195572     -1.4640564936
 C     -1.2502160440     -4.2142136613     -1.6723977556
 O     -2.0826359469     -3.4613200016     -1.1386822936
 H     -1.5412378980     -4.9600876548     -2.4788507585
10
# ORCA AIMD Position Step 385, t=192.50 fs, E_Pot=-378.86991609 Hartree, Unit is Angstrom
 H     -1.2485011819     -0.2111818766      0.7537153253
 C     -1.0669554145     -1.1869214642      0.3040379237
 O     -0.0932897273     -1.8303391378      0.6556040996
 O     -1.9954171305     -1.5526258528     -0.5684026529
 H     -1.8203564865     -2.5107260348     -1.0336781078
 H      0.2801778840     -3.3174101055      0.1217415919
 O      0.5422315637     -4.1844622714     -0.3115419674
 C     -0.3745199475     -4.5606667888     -1.2055051866
 O     -1.3943605612     -3.9251509271     -1.5749917451
 H     -0.1188959380     -5.5510543970     -1.7476401220
10
# ORCA AIMD Position Step 705, t=352.50 fs, E_Pot=-378.87170285 Hartree, Unit is Angstrom
 H      0.0246633631     -0.6621937749      1.4574462224
 C     -0.2271674702     -1.4789101568      0.7420059946
 O      0.5730283472     -2.2827712306      0.2681224637
 O     -1.5143309243     -1.5050767445      0.5112698741
 H     -1.7870810366     -2.2317302245     -0.1371640925
 H      0.2479881779     -3.4595531366     -0.7131289982
 O      0.0648589248     -4.2378728020     -1.3984598182
 C     -1.2486905151     -4.2626072945     -1.6810229891
 O     -2.0287411223     -3.4866332955     -1.1549014184
 H     -1.5493088903     -4.9953497322     -2.4681520281
10
# ORCA AIMD Position Step 173, t=86.50 fs, E_Pot=-378.86696222 Hartree, Unit is Angstrom
 H     -2.1284179510     -0.3097358194      0.1475590508
 C     -1.5646607113     -1.2919735290     -0.0926479437
 O     -0.6950129518     -1.6847186564      0.7206602787
 O     -2.0140820975     -1.8156740526     -1.2216048068
 H     -1.4556529461     -2.7553597936     -1.3706140904
 H      0.0099319741     -3.0322015492      0.4188548207
 O      0.5225328020     -3.9011658320      0.3316349959
 C      0.1028172614     -4.4732164995     -0.7995728457
 O     -0.7369180693     -4.0851037273     -1.6427197357
 H      0.6337951886     -5.3772358416     -1.0103119432
10
# ORCA AIMD Position Step 147, t=73.50 fs, E_Pot=-378.86814705 Hartree, Unit is Angstrom
 H     -2.1581373658     -0.2856287613      0.0332804115
 C     -1.6320491076     -1.2851286134     -0.1402401783
 O     -0.7898230082     -1.6847065965      0.6885420355
 O     -1.9763719286     -1.8549710012     -1.2446487237
 H     -1.4826150898     -2.8206049885     -1.4840047418
 H      0.0191166713     -2.9955188088      0.5373823118
 O      0.4643665651     -3.8542581108      0.3502388377
 C      0.1845254768     -4.4571208705     -0.7673147967
 O     -0.6351551507     -4.1073110017     -1.5988101889
 H      0.7249849493     -5.4146478999     -0.8351318513
10
# ORCA AIMD Position Step 211, t=105.50 fs, E_Pot=-378.87142325 Hartree, Unit is Angstrom
 H     -2.0163581982     -0.2724502766      0.2344258529
 C     -1.5286343199     -1.2302452806     -0.0018102405
 O     -0.5993699542     -1.7168193702      0.6695001301
 O     -1.9795702347     -1.7948643509     -1.1027842004
 H     -1.4615221141     -2.6710453236     -1.2221360159
 H      0.0510511823     -3.0258670127      0.3314069446
 O      0.5270823731     -3.9927823688      0.1892305919
 C      0.0347347937     -4.5006861001     -0.8849197606
 O     -0.8464640588     -4.0049532815     -1.5770608224
 H      0.4691397798     -5.5521840108     -1.0794375309
10
# ORCA AIMD Position Step 962, t=481.00 fs, E_Pot=-378.87051932 Hartree, Unit is Angstrom
 H      1.1407419195     -1.7390334631      1.5653933254
 C      0.4137926071     -2.1260136093      0.7913911357
 O      0.8817451919     -2.7106460391     -0.2046161300
 O     -0.8417833233     -1.9253462888      1.1454244092
 H     -1.5038619427     -2.4018621002      0.4027972558
 H      0.0146265521     -3.3802895406     -1.3093388408
 O     -0.5887478741     -3.8115806973     -1.9971766568
 C     -1.8601402302     -3.6385130381     -1.7186677832
 O     -2.3875795554     -3.0297352828     -0.7310556264
 H     -2.5719786148     -4.1097189391     -2.4461850486
10
# ORCA AIMD Position Step 148, t=74.00 fs, E_Pot=-378.86888995 Hartree, Unit is Angstrom
 H     -2.1583022060     -0.2808728777      0.0368678872
 C     -1.6282257007     -1.2851060315     -0.1354611773
 O     -0.7861218730     -1.6846700328      0.6898709237
 O     -1.9781540588     -1.8546074829     -1.2455843479
 H     -1.4918524382     -2.8121032692     -1.4873434237
 H      0.0224872463     -2.9881700141      0.5364983207
 O      0.4662772032     -3.8568903088      0.3491988759
 C      0.1823228386     -4.4569749941     -0.7685074008
 O     -0.6393089823     -4.1070468594     -1.6008087270
 H      0.7168495390     -5.4060258678     -0.8352457456
10
# ORCA AIMD Position Step 976, t=488.00 fs, E_Pot=-378.87015862 Hartree, Unit is Angstrom
 H      1.1574653125     -1.7809848427      1.5570469387
 C      0.4344651906     -2.1568952344      0.7810676132
 O      0.8720467560     -2.7299882484     -0.2100260294
 O     -0.7823964466     -1.9732409198      1.1535972894
 H     -1.4486526537     -2.3190882103      0.5363711533
 H      0.0188330179     -3.3949075289     -1.2852459164
 O     -0.6483026849     -3.7725645697     -2.0213341869
 C     -1.9206186445     -3.6021612373     -1.6900754749
 O     -2.3525228118     -3.0135247641     -0.7306132396
 H     -2.5736266439     -4.0104782145     -2.4806371672
10
# ORCA AIMD Position Step 79, t=39.50 fs, E_Pot=-378.86833677 Hartree, Unit is Angstrom
 H     -2.3341160077     -0.4209935708     -0.2887499407
 C     -1.7376238801     -1.3699168177     -0.2923677545
 O     -1.0323955745     -1.6168223824      0.6896834152
 O     -1.9344996564     -1.9848941760     -1.4314590752
 H     -1.3291001290     -2.8010968655     -1.3967578751
 H     -0.1670359645     -2.8930514978      0.6148110934
 O      0.4724913758     -3.7975626552      0.5324811559
 C      0.3068694655     -4.3780112257     -0.6323037869
 O     -0.4528226983     -4.1023600078     -1.5809623158
 H      0.8963623754     -5.3273647073     -0.7027156492
10
# ORCA AIMD Position Step 393, t=196.50 fs, E_Pot=-378.87336392 Hartree, Unit is Angstrom
 H     -1.2978960679     -0.1531051509      0.7241116798
 C     -1.0618612644     -1.1943171694      0.3091178867
 O     -0.0740740590     -1.8359142447      0.6496983477
 O     -1.9690418502     -1.5505357610     -0.5310024588
 H     -1.7489546134     -2.4861700759     -0.9483124470
 H      0.2320799231     -3.2791199010      0.0335366619
 O      0.5238291052     -4.1972738285     -0.3466683464
 C     -0.3819815817     -4.5656858962     -1.2232958602
 O     -1.4169688258     -3.9094186751     -1.5610628943
 H     -0.1372922409     -5.5150895184     -1.7271733787
10
# ORCA AIMD Position Step 958, t=479.00 fs, E_Pot=-378.87056522 Hartree, Unit is Angstrom
 H      1.1333190456     -1.7028370697      1.5766149279
 C      0.4115103572     -2.1205593704      0.7947674527
 O      0.8814331967     -2.7037312709     -0.2018822577
 O     -0.8620330930     -1.9149421082      1.1376923578
 H     -1.4644345161     -2.3898366192      0.3909567118
 H      0.0112431953     -3.3487431304     -1.2817370842
 O     -0.5769061290     -3.8239730553     -1.9914384141
 C     -1.8457438072     -3.6453069698     -1.7219973575
 O     -2.3922970778     -3.0372540127     -0.7347607175
 H     -2.5316673662     -4.1323813839     -2.4266638455
10
# ORCA AIMD Position Step 241, t=120.50 fs, E_Pot=-378.87013917 Hartree, Unit is Angstrom
 H     -1.9386295672     -0.2658993933      0.3711363440
 C     -1.4296556940     -1.2516474148      0.0390878833
 O     -0.5237966221     -1.7145275725      0.6715239891
 O     -2.0017807315     -1.7424411481     -1.0196600908
 H     -1.5943390599     -2.6724276588     -1.3424846005
 H      0.1708393025     -3.1253467693      0.3913538040
 O      0.5608271454     -4.0417412932      0.1123452293
 C     -0.0471908042     -4.5395480863     -0.9357939578
 O     -0.9417913217     -3.9638359125     -1.5704734678
 H      0.3317042055     -5.4837615939     -1.2725735811
10
# ORCA AIMD Position Step 454, t=227.00 fs, E_Pot=-378.87119080 Hartree, Unit is Angstrom
 H     -1.1411016484     -0.2734090449      0.8222577830
 C     -0.9083971431     -1.2507420061      0.3937908158
 O      0.1284791391     -1.8782240968      0.6404703945
 O     -1.9259234824     -1.5435655101     -0.3564965080
 H     -1.7560985987     -2.4619388410     -0.8194104385
 H      0.3541721629     -3.3585103284     -0.0619165414
 O      0.4770791787     -4.2421683261     -0.5631541341
 C     -0.5740743677     -4.4927016069     -1.3141850984
 O     -1.5888365184     -3.8338879922     -1.5013290797
 H     -0.3781492078     -5.4622907581     -1.9200220326
10
# ORCA AIMD Position Step 720, t=360.00 fs, E_Pot=-378.86911410 Hartree, Unit is Angstrom
 H      0.1455800416     -0.7266558802      1.4415927755
 C     -0.2094758294     -1.5076671367      0.7454108813
 O      0.5998621132     -2.3119470346      0.2414006496
 O     -1.4663503032     -1.5076009966      0.5693510476
 H     -1.7323028796     -2.2959721605     -0.0816270939
 H      0.1471408899     -3.4847136467     -0.7699411832
 O      0.0019475130     -4.2203948907     -1.4490810448
 C     -1.2393718079     -4.2309609443     -1.6705619231
 O     -2.0666988227     -3.4664993071     -1.1425708129
 H     -1.5324617368     -4.9697469029     -2.5062324248
10
# ORCA AIMD Position Step 426, t=213.00 fs, E_Pot=-378.86901644 Hartree, Unit is Angstrom
 H     -1.0848526261     -0.1969926316      0.8631377070
 C     -0.9701537529     -1.1770243121      0.3864679121
 O      0.0165948160     -1.8507469883      0.6381235950
 O     -1.9389865656     -1.5828548645     -0.4546405606
 H     -1.7867325880     -2.4975523566     -0.8540478422
 H      0.3262824465     -3.2777980614      0.0026777250
 O      0.4649044043     -4.2162121526     -0.4729005911
 C     -0.4673010213     -4.5511150012     -1.3098731450
 O     -1.4865326570     -3.8607377891     -1.4992719461
 H     -0.3596421139     -5.5644991159     -1.8251453789
10
# ORCA AIMD Position Step 361, t=180.50 fs, E_Pot=-378.87078649 Hartree, Unit is Angstrom
 H     -1.3873548011     -0.2085073791      0.6349093852
 C     -1.1333479209     -1.2028757285      0.2533670858
 O     -0.1380323498     -1.8334027261      0.6702889087
 O     -2.0426138819     -1.5365187693     -0.6514748538
 H     -1.7523822047     -2.5133806386     -0.9982541405
 H      0.3087446556     -3.2520596125      0.1327202480
 O      0.5456102170     -4.1752465357     -0.2400173299
 C     -0.3024694977     -4.5246761623     -1.1501657305
 O     -1.3144399079     -3.9655752609     -1.5907731382
 H     -0.0068662299     -5.5668546099     -1.5301783315
10
# ORCA AIMD Position Step 417, t=208.50 fs, E_Pot=-378.87050939 Hartree, Unit is Angstrom
 H     -1.1619433399     -0.1204863339      0.8201556177
 C     -1.0008417854     -1.1741100851      0.3709384253
 O     -0.0113066121     -1.8509803279      0.6369606746
 O     -1.9419125403     -1.5760196002     -0.4751361566
 H     -1.7267664147     -2.5241377949     -0.8392441077
 H      0.3478240229     -3.2869257698     -0.0184861780
 O      0.4615749084     -4.2115609130     -0.4456113431
 C     -0.4499017052     -4.5447944680     -1.2970082161
 O     -1.4466406558     -3.8841104823     -1.5052461420
 H     -0.2967428116     -5.5229692106     -1.7386016425
10
# ORCA AIMD Position Step 581, t=290.50 fs, E_Pot=-378.87034435 Hartree, Unit is Angstrom
 H     -0.4216493928     -0.4851358415      1.2803836089
 C     -0.5626854640     -1.3589978815      0.6010840903
 O      0.3908778070     -2.1149867981      0.4486906474
 O     -1.7897955749     -1.4661675963      0.0770158468
 H     -1.7342974750     -2.3430420978     -0.5164941988
 H      0.2958295409     -3.3992701250     -0.4513218162
 O      0.3297697438     -4.2560234939     -1.0122260439
 C     -0.8757862713     -4.4023904366     -1.4533986871
 O     -1.8801609029     -3.6486633506     -1.3572167575
 H     -0.9487638431     -5.3054163277     -2.0993340816
10
# ORCA AIMD Position Step 761, t=380.50 fs, E_Pot=-378.87152564 Hartree, Unit is Angstrom
 H      0.2756921174     -0.8142993602      1.4414291369
 C     -0.0937532022     -1.6139432941      0.7468031931
 O      0.6882744986     -2.3872256222      0.1774805454
 O     -1.3815692716     -1.5509412755      0.6974820418
 H     -1.7907623798     -2.2174137474      0.0236460829
 H      0.2218385736     -3.4468302175     -0.8708327313
 O     -0.0350253557     -4.1821638085     -1.5618998889
 C     -1.3487045576     -4.1198951679     -1.6802650007
 O     -2.2046213179     -3.3970889131     -1.0929886785
 H     -1.7279383556     -4.8813834152     -2.4268842491
10
# ORCA AIMD Position Step 342, t=171.00 fs, E_Pot=-378.87046644 Hartree, Unit is Angstrom
 H     -1.4112049033     -0.1988213734      0.6032304252
 C     -1.1889336258     -1.2032330803      0.2253679232
 O     -0.2186983746     -1.8238660409      0.6499209235
 O     -2.0226280799     -1.5568730705     -0.6920535854
 H     -1.8083003531     -2.5297633325     -1.1183467356
 H      0.2558463643     -3.2283500934      0.0890199646
 O      0.5436400438     -4.1335365942     -0.1708127915
 C     -0.2513606948     -4.5645053422     -1.1375365986
 O     -1.2420334374     -3.9639069012     -1.5762003775
 H      0.0242969727     -5.6218217732     -1.5139297540
10
# ORCA AIMD Position Step 289, t=144.50 fs, E_Pot=-378.87200813 Hartree, Unit is Angstrom
 H     -1.6607308512     -0.2019091166      0.4961570572
 C     -1.3220192532     -1.2265207970      0.1293369326
 O     -0.3781708168     -1.7706324892      0.6649430691
 O     -2.0260573628     -1.6461786388     -0.8777467931
 H     -1.7415219322     -2.5807742092     -1.2455723391
 H      0.2879841578     -3.1623565390      0.2429408129
 O      0.5800259842     -4.1021920662      0.0022217237
 C     -0.1548503809     -4.5365125772     -1.0443532431
 O     -1.0857771182     -3.9684444583     -1.5817485272
 H      0.1386837715     -5.5427254997     -1.3490725584
10
# ORCA AIMD Position Step 651, t=325.50 fs, E_Pot=-378.86829525 Hartree, Unit is Angstrom
 H     -0.2883469250     -0.5830337335      1.3813436629
 C     -0.3797505107     -1.4368795363      0.6794624781
 O      0.5142873625     -2.1774089789      0.3681222055
 O     -1.6605557628     -1.4730346323      0.3176487494
 H     -1.8765188218     -2.2732373622     -0.3001309289
 H      0.4552332041     -3.5594876065     -0.6532711820
 O      0.2227863539     -4.3001400075     -1.2621414126
 C     -1.1039761866     -4.3260908824     -1.5782014198
 O     -1.9751066518     -3.5331166912     -1.2240986338
 H     -1.3650379073     -5.1322347815     -2.3482689311
10
# ORCA AIMD Position Step 119, t=59.50 fs, E_Pot=-378.86574180 Hartree, Unit is Angstrom
 H     -2.2637175619     -0.3342176722     -0.0713134675
 C     -1.6864689827     -1.2597054432     -0.1868773398
 O     -0.9001417128     -1.6758783533      0.6624559821
 O     -1.9432100196     -1.9254281403     -1.3017498323
 H     -1.3031587828     -2.8324374535     -1.3344276726
 H     -0.1410920794     -3.0354379864      0.3899930295
 O      0.4497856334     -3.8073008863      0.4101929485
 C      0.2422300452     -4.4696221360     -0.6953827738
 O     -0.5525244908     -4.0977212007     -1.5859512809
 H      0.9167258433     -5.3876209896     -0.8694724477
10
# ORCA AIMD Position Step 852, t=426.00 fs, E_Pot=-378.87101920 Hartree, Unit is Angstrom
 H      0.6127584371     -1.2354246949      1.6148434336
 C      0.1558325003     -1.8334800852      0.8018414827
 O      0.8479707238     -2.5013149608      0.0271233723
 O     -1.1876508881     -1.7472161859      0.8527801809
 H     -1.5816954737     -2.3552777651      0.1439463053
 H      0.1586718274     -3.4472056740     -1.0255441075
 O     -0.2927049112     -4.0364044038     -1.8037741191
 C     -1.6151697855     -3.9178450630     -1.6669736221
 O     -2.2912572721     -3.2052592364     -0.9143062617
 H     -2.1573694304     -4.5457661526     -2.4555226488
10
# ORCA AIMD Position Step 144, t=72.00 fs, E_Pot=-378.86817366 Hartree, Unit is Angstrom
 H     -2.1558833606     -0.3073611965      0.0204963285
 C     -1.6423248026     -1.2847869694     -0.1530452324
 O     -0.8014431971     -1.6844436159      0.6842488498
 O     -1.9710131526     -1.8575474617     -1.2431409082
 H     -1.4587206953     -2.8262339899     -1.4610322105
 H     -0.0076563744     -2.9955703953      0.5375903740
 O      0.4601605455     -3.8480011981      0.3536000817
 C      0.1912181998     -4.4576411917     -0.7621499356
 O     -0.6236829982     -4.1075999710     -1.5940588164
 H      0.7523561855     -5.4431095487     -0.8390444862
10
# ORCA AIMD Position Step 29, t=14.50 fs, E_Pot=-378.86825395 Hartree, Unit is Angstrom
 H     -2.5058499046     -0.5088027634     -0.3964979085
 C     -1.8669121870     -1.3824550231     -0.4103612553
 O     -1.1671383938     -1.6734947372      0.5859979760
 O     -1.8753271097     -2.0521323067     -1.4911442316
 H     -1.2357445793     -2.8071462755     -1.3691757857
 H     -0.2480844370     -2.8728941071      0.5622499111
 O      0.4328523648     -3.7293693844      0.6023211047
 C      0.3957154630     -4.3546723229     -0.5335972583
 O     -0.3089764664     -4.0521807375     -1.4737393331
 H      1.0831602681     -5.2944627045     -0.5574963852
10
# ORCA AIMD Position Step 891, t=445.50 fs, E_Pot=-378.87294878 Hartree, Unit is Angstrom
 H      0.8271707330     -1.4088341017      1.6741247216
 C      0.2617967442     -1.9446046062      0.8299191010
 O      0.8571680969     -2.5640141900     -0.0611214381
 O     -1.0610203193     -1.8136334666      0.9348506995
 H     -1.5457869425     -2.3600816411      0.1501175590
 H      0.0653566176     -3.3766597589     -1.1790351533
 O     -0.4326324719     -3.9413741798     -1.8333622024
 C     -1.7241232861     -3.8223013383     -1.7188422319
 O     -2.2882948718     -3.1604557484     -0.8552480704
 H     -2.2607060782     -4.4225467804     -2.4537501795
10
# ORCA AIMD Position Step 121, t=60.50 fs, E_Pot=-378.86677028 Hartree, Unit is Angstrom
 H     -2.2610855974     -0.3270018092     -0.0644373778
 C     -1.6800508365     -1.2634815056     -0.1824908887
 O     -0.8944081629     -1.6762720514      0.6610647287
 O     -1.9458218282     -1.9191712131     -1.2962224148
 H     -1.2949335828     -2.8238180206     -1.3086192190
 H     -0.1541062448     -3.0270814539      0.3876412412
 O      0.4502478237     -3.8099238646      0.4046279275
 C      0.2417489122     -4.4722223172     -0.6969380702
 O     -0.5592698158     -4.0977699121     -1.5881176031
 H      0.8983170377     -5.3864917614     -0.8764775528
10
# ORCA AIMD Position Step 411, t=205.50 fs, E_Pot=-378.87012916 Hartree, Unit is Angstrom
 H     -1.2237045511     -0.1546085600      0.7477308339
 C     -1.0277108486     -1.1751249173      0.3527653230
 O     -0.0249715756     -1.8511543425      0.6393314135
 O     -1.9432194786     -1.5635260723     -0.4828548329
 H     -1.6738157101     -2.5518567199     -0.8405316172
 H      0.3105614314     -3.3021168480     -0.0527941946
 O      0.4707627702     -4.2098191357     -0.4235834382
 C     -0.4400518738     -4.5362211407     -1.2796427843
 O     -1.4296137791     -3.8962458183     -1.5150892709
 H     -0.2263206591     -5.5665703453     -1.7294718581
10
# ORCA AIMD Position Step 61, t=30.50 fs, E_Pot=-378.86815777 Hartree, Unit is Angstrom
 H     -2.4479081629     -0.4008140625     -0.2938977244
 C     -1.7891967098     -1.3447549020     -0.3253407467
 O     -1.0788741546     -1.6313549151      0.6726819121
 O     -1.9066581510     -2.0379949581     -1.4730403959
 H     -1.3601511990     -2.8593696220     -1.6021742603
 H     -0.1745166291     -2.9236676234      0.6174291089
 O      0.4691005659     -3.7680997858      0.5741650450
 C      0.3256532214     -4.3887228317     -0.6020690303
 O     -0.4029641135     -4.0766379516     -1.5503311234
 H      0.9976606610     -5.2332593926     -0.6801002923
10
# ORCA AIMD Position Step 827, t=413.50 fs, E_Pot=-378.87368334 Hartree, Unit is Angstrom
 H      0.5522223105     -1.0696355618      1.5518074573
 C      0.0710178909     -1.7569643720      0.8016005631
 O      0.7842262733     -2.4666024346      0.0793380066
 O     -1.2035457767     -1.7115625490      0.8006189586
 H     -1.6177561786     -2.3153081366      0.0748116548
 H      0.2117231357     -3.3737347821     -1.0284125668
 O     -0.2652467559     -4.0617335667     -1.7217016268
 C     -1.5572423252     -3.9820545455     -1.6919649438
 O     -2.2249193642     -3.2673173743     -0.9710024695
 H     -2.0181412486     -4.7014729372     -2.4234451325
10
# ORCA AIMD Position Step 573, t=286.50 fs, E_Pot=-378.87085463 Hartree, Unit is Angstrom
 H     -0.4465977181     -0.4607529525      1.2675871113
 C     -0.5773660436     -1.3618046755      0.5839864855
 O      0.3755823699     -2.1033366985      0.4603951045
 O     -1.8025191531     -1.4680120972      0.0504950144
 H     -1.8190080271     -2.2818837809     -0.5487600201
 H      0.3736039812     -3.4044953807     -0.3929434302
 O      0.3384065829     -4.2523638166     -0.9826109791
 C     -0.8577450621     -4.3885753702     -1.4397692121
 O     -1.8646976397     -3.6752862132     -1.3745916558
 H     -0.8947224959     -5.3080657406     -2.0304353950
10
# ORCA AIMD Position Step 5, t=2.50 fs, E_Pot=-378.87079908 Hartree, Unit is Angstrom
 H     -2.5616354960     -0.5457782964     -0.4205996643
 C     -1.8943463192     -1.4006927979     -0.4147062737
 O     -1.2121088455     -1.6930372067      0.5654942855
 O     -1.8767921086     -2.0764160841     -1.5688705266
 H     -1.2600484148     -2.8433114448     -1.5604617513
 H     -0.2699965606     -2.8540996739      0.6141897566
 O      0.4250952054     -3.6897444695      0.6641298697
 C      0.4325001523     -4.3316017093     -0.4723966466
 O     -0.2582847796     -4.0502072453     -1.4742913450
 H      1.1293103620     -5.2623426443     -0.4846812335
10
# ORCA AIMD Position Step 290, t=145.00 fs, E_Pot=-378.87171422 Hartree, Unit is Angstrom
 H     -1.6598715875     -0.2061494062      0.4949480762
 C     -1.3208896885     -1.2240154266      0.1302478976
 O     -0.3756580605     -1.7730483859      0.6634000755
 O     -2.0248295401     -1.6432788116     -0.8719598798
 H     -1.7369946815     -2.5915006054     -1.2463552816
 H      0.2843926077     -3.1763791391      0.2351517824
 O      0.5783741819     -4.1022802667     -0.0021951917
 C     -0.1583305293     -4.5361223193     -1.0459919665
 O     -1.0866917623     -3.9687005230     -1.5803813849
 H      0.1462617363     -5.5504563527     -1.3495733942
10
# ORCA AIMD Position Step 795, t=397.50 fs, E_Pot=-378.87136697 Hartree, Unit is Angstrom
 H      0.4864260458     -0.9184174961      1.5072470248
 C      0.0227352610     -1.6588516947      0.8011402155
 O      0.7355062887     -2.4443374696      0.1135450761
 O     -1.3136924279     -1.6354920377      0.7478021570
 H     -1.6646169982     -2.3348806335      0.0781063305
 H      0.2372028529     -3.4711460969     -0.9211034504
 O     -0.1643729729     -4.0910850285     -1.6275236909
 C     -1.4760943984     -4.0899046441     -1.7124589262
 O     -2.1927218989     -3.3252451302     -1.0335968741
 H     -1.9131510592     -4.7951644405     -2.4457239644
10
# ORCA AIMD Position Step 443, t=221.50 fs, E_Pot=-378.87045083 Hartree, Unit is Angstrom
 H     -1.1459264972     -0.2142089276      0.8649651448
 C     -0.9479161027     -1.2310044947      0.3704873623
 O      0.0941224531     -1.8654627374      0.6468803078
 O     -1.9265652892     -1.5548269085     -0.3881673458
 H     -1.7294443127     -2.4652799008     -0.8169046299
 H      0.2053901162     -3.3218452193     -0.0671663532
 O      0.4894156638     -4.2343001744     -0.5227315067
 C     -0.5425808455     -4.5270154096     -1.3186742720
 O     -1.5530639020     -3.8393620154     -1.5015340350
 H     -0.3636599900     -5.4429356594     -1.8662113487
10
# ORCA AIMD Position Step 750, t=375.00 fs, E_Pot=-378.87044957 Hartree, Unit is Angstrom
 H      0.2870368759     -0.7584674398      1.4232720768
 C     -0.1044316443     -1.5752664994      0.7671323299
 O      0.6711846017     -2.3786512123      0.1830862584
 O     -1.4308198832     -1.5353386497      0.6609933870
 H     -1.7985252538     -2.2362065349      0.0097825199
 H      0.3363536084     -3.4786165669     -0.8334980324
 O      0.0001424047     -4.1918184988     -1.5228818850
 C     -1.3516689296     -4.1398302178     -1.6948610675
 O     -2.1715817207     -3.4230590434     -1.1082471874
 H     -1.7131026144     -4.9282572147     -2.3874482055
10
# ORCA AIMD Position Step 193, t=96.50 fs, E_Pot=-378.87067291 Hartree, Unit is Angstrom
 H     -2.0840478315     -0.2995446494      0.2125886587
 C     -1.5350129071     -1.2751821595     -0.0532711485
 O     -0.6554649319     -1.6935566237      0.6850652552
 O     -1.9894652192     -1.7953373972     -1.1400813185
 H     -1.5173547279     -2.7567985444     -1.4362409961
 H      0.0919849530     -3.0775474912      0.5236101387
 O      0.5230176612     -3.9437957229      0.2504254549
 C      0.0632230701     -4.4964224743     -0.8385586034
 O     -0.7936595317     -4.0427797354     -1.6109096346
 H      0.5620711354     -5.4418601853     -1.0640380411
10
# ORCA AIMD Position Step 298, t=149.00 fs, E_Pot=-378.87274503 Hartree, Unit is Angstrom
 H     -1.6613958926     -0.2277559980      0.4908658430
 C     -1.3107683758     -1.2008672981      0.1398144481
 O     -0.3517110233     -1.7940152872      0.6535254451
 O     -2.0190307527     -1.6272740509     -0.8343672892
 H     -1.6920674005     -2.5785925688     -1.1800995715
 H      0.2130627200     -3.1829331625      0.2174030769
 O      0.5640846047     -4.1108446957     -0.0452413857
 C     -0.1720235808     -4.5394759385     -1.0458554837
 O     -1.1011033301     -3.9663941395     -1.5745364790
 H      0.2001671455     -5.5929816451     -1.3590967481
10
# ORCA AIMD Position Step 838, t=419.00 fs, E_Pot=-378.87211145 Hartree, Unit is Angstrom
 H      0.6017073764     -1.1593822727      1.6033498133
 C      0.1215609239     -1.7761467302      0.8088846578
 O      0.8155850644     -2.4873566738      0.0528370448
 O     -1.2098378747     -1.7286908750      0.8232866642
 H     -1.6487611768     -2.3650953006      0.0706274291
 H      0.2680323060     -3.4738688387     -1.1063081477
 O     -0.2800719174     -4.0455821443     -1.7540891767
 C     -1.5741110966     -3.9689911262     -1.6886922901
 O     -2.2611116669     -3.2310934581     -0.9392258565
 H     -2.0822907713     -4.6189233677     -2.4481601237
10
# ORCA AIMD Position Step 933, t=466.50 fs, E_Pot=-378.87369723 Hartree, Unit is Angstrom
 H      1.0100175662     -1.5524729342      1.5983928309
 C      0.3561173883     -2.0683847651      0.8206440477
 O      0.8490721694     -2.6406956261     -0.1468241047
 O     -0.9070027990     -1.8819845777      1.0490240222
 H     -1.5344720970     -2.2875578671      0.3326370383
 H      0.0760538249     -3.3744131676     -1.2388531214
 O     -0.5271529906     -3.8627493776     -1.9254115202
 C     -1.8106983208     -3.7039860403     -1.7017550208
 O     -2.3512875516     -3.0977497790     -0.7993405185
 H     -2.3738768897     -4.2298061479     -2.4720508926
10
# ORCA AIMD Position Step 17, t=8.50 fs, E_Pot=-378.86658893 Hartree, Unit is Angstrom
 H     -2.5763374005     -0.4385821318     -0.3920132268
 C     -1.8916041997     -1.3741753150     -0.3942302832
 O     -1.1892777728     -1.6883907717      0.5694733694
 O     -1.8717381687     -2.0735271075     -1.5391863014
 H     -1.1782841040     -2.9434120514     -1.5200896981
 H     -0.2205752773     -2.9364325901      0.5661834424
 O      0.4218343734     -3.7002327797      0.6386042045
 C      0.4351814445     -4.3556288993     -0.5033231773
 O     -0.2886612688     -4.0455929671     -1.4736365390
 H      1.0395038407     -5.2431482625     -0.5206621498
10
# ORCA AIMD Position Step 530, t=265.00 fs, E_Pot=-378.87125708 Hartree, Unit is Angstrom
 H     -0.5880441546     -0.3519620605      1.1739925888
 C     -0.6999148676     -1.3006986770      0.5376743011
 O      0.2853711186     -2.0478953402      0.5073072812
 O     -1.8403027452     -1.4947095232     -0.1007568227
 H     -1.7636095076     -2.3974931224     -0.5993771919
 H      0.2266499069     -3.3157108483     -0.3368948233
 O      0.3663958025     -4.2052042303     -0.8142832436
 C     -0.7499281595     -4.4657417724     -1.4177722546
 O     -1.7500229685     -3.7395551223     -1.4181105284
 H     -0.7190071909     -5.3833260696     -1.9774276440
10
# ORCA AIMD Position Step 876, t=438.00 fs, E_Pot=-378.87042439 Hartree, Unit is Angstrom
 H      0.7004808279     -1.3200741316      1.5799993628
 C      0.1847192171     -1.9208282525      0.8172465772
 O      0.8635843398     -2.5292192672     -0.0186108384
 O     -1.0855355488     -1.7879404081      0.9007416086
 H     -1.6246293959     -2.2813680632      0.2016027673
 H      0.2122812474     -3.3850107638     -1.1608020884
 O     -0.3883066331     -3.9864540595     -1.8253198909
 C     -1.6626908990     -3.8534483698     -1.7108273202
 O     -2.2998541170     -3.1740954752     -0.8668507454
 H     -2.2484805587     -4.5219104100     -2.4506832801
10
# ORCA AIMD Position Step 424, t=212.00 fs, E_Pot=-378.86848693 Hartree, Unit is Angstrom
 H     -1.0965376794     -0.1737629140      0.8598487723