ITEM: TIMESTEP
0
ITEM: NUMBER OF ATOMS
10
ITEM: BOX BOUNDS pp pp pp
0.0000000000000000e+00 3.0000000000000000e+01
0.0000000000000000e+00 3.0000000000000000e+01
0.0000000000000000e+00 3.0000000000000000e+01
ITEM: ATOMS id type x y z
10 1 16.8573 12.6792 14.9876
2 2 13.8428 16.4491 15.015
3 3 14.5111 16.181 16.0194
4 3 13.8445 15.8094 13.8761
5 1 14.5052 15.0085 13.9134
6 1 15.4956 14.9921 16.0863
7 3 16.1558 14.1908 16.1237
8 2 16.157 13.5508 14.9851
9 3 15.4893 13.8194 13.9804
1 1 13.1413 17.3196 15.013
ITEM: TIMESTEP
100
ITEM: NUMBER OF ATOMS
10
ITEM: BOX BOUNDS pp pp pp
0.0000000000000000e+00 3.0000000000000000e+01
0.0000000000000000e+00 3.0000000000000000e+01
0.0000000000000000e+00 3.0000000000000000e+01
ITEM: ATOMS id type x y z
10 1 17.0706 12.8264 14.883
2 2 13.8855 16.5003 14.9888
3 3 14.4458 16.1426 16.0286
4 3 13.821 15.8357 13.8702
5 1 14.4222 15.0019 13.9652
6 1 15.5081 14.9359 16.006
7 3 16.1881 14.1806 16.1375
8 2 16.2134 13.5594 14.967
9 3 15.4505 13.7816 14.0106
1 1 13.3318 17.4779 14.9229
ITEM: TIMESTEP
200
ITEM: NUMBER OF ATOMS
10
ITEM: BOX BOUNDS pp pp pp
0.0000000000000000e+00 3.0000000000000000e+01
0.0000000000000000e+00 3.0000000000000000e+01
0.0000000000000000e+00 3.0000000000000000e+01
ITEM: ATOMS id type x y z
10 1 16.7306 12.5672 15.0303
2 2 13.7889 16.4183 15.0276
3 3 14.5259 16.2021 16.0056
4 3 13.8747 15.8284 13.8739
5 1 14.5787 15.0874 13.9079
6 1 15.4608 14.9044 15.99
7 3 16.1702 14.2004 16.1354
8 2 16.173 13.521 14.9791
9 3 15.4735 13.8308 13.9811
1 1 12.9907 17.1941 15.0508
ITEM: TIMESTEP
300
ITEM: NUMBER OF ATOMS
10
ITEM: BOX BOUNDS pp pp pp
0.0000000000000000e+00 3.0000000000000000e+01
0.0000000000000000e+00 3.0000000000000000e+01
0.0000000000000000e+00 3.0000000000000000e+01
ITEM: ATOMS id type x y z
10 1 16.6914 12.5233 15.0981
2 2 13.8212 16.4449 15.0411
3 3 14.5455 16.1877 16.0061
4 3 13.8413 15.7776 13.9007
5 1 14.5025 14.9272 13.9025
6 1 15.5614 15.1256 15.9323
7 3 16.1415 14.2336 16.1172
8 2 16.0711 13.4722 15.0143
9 3 15.567 13.8748 13.9343
1 1 13.0244 17.2502 15.0626
ITEM: TIMESTEP
400
ITEM: NUMBER OF ATOMS
10
ITEM: BOX BOUNDS pp pp pp
0.0000000000000000e+00 3.0000000000000000e+01
0.0000000000000000e+00 3.0000000000000000e+01
0.0000000000000000e+00 3.0000000000000000e+01
ITEM: ATOMS id type x y z
10 1 17.1206 12.9019 14.9043
2 2 13.8374 16.513 15.0211
3 3 14.5098 16.1997 15.9923
4 3 13.8325 15.7918 13.8827
5 1 14.5431 14.9674 13.9125
6 1 15.3052 14.8065 16.1442
7 3 16.114 14.1182 16.1522
8 2 16.2791 13.6149 14.9119
9 3 15.4446 13.7879 14.0297
1 1 13.225 17.4347 14.9299
ITEM: TIMESTEP
500
ITEM: NUMBER OF ATOMS
10
ITEM: BOX BOUNDS pp pp pp
0.0000000000000000e+00 3.0000000000000000e+01
0.0000000000000000e+00 3.0000000000000000e+01
0.0000000000000000e+00 3.0000000000000000e+01
ITEM: ATOMS id type x y z
10 1 16.9602 12.6911 15.0915
2 2 13.8962 16.5362 14.9996
3 3 14.4714 16.0977 16.0069
4 3 13.7923 15.8122 13.885
5 1 14.3692 14.8845 13.9864
6 1 15.523 15.0664 16.0314
7 3 16.1696 14.2119 16.0942
8 2 16.1662 13.504 14.9993
9 3 15.5084 13.8376 14.0111
1 1 13.3398 17.5317 14.943
ITEM: TIMESTEP
600
ITEM: NUMBER OF ATOMS
10
ITEM: BOX BOUNDS pp pp pp
0.0000000000000000e+00 3.0000000000000000e+01
0.0000000000000000e+00 3.0000000000000000e+01
0.0000000000000000e+00 3.0000000000000000e+01
ITEM: ATOMS id type x y z
10 1 16.6857 12.5618 15.1817
2 2 13.7206 16.348 15.0707
3 3 14.5495 16.2548 15.9931
4 3 13.9496 15.8369 13.8699
5 1 14.7657 15.1729 13.9972
6 1 15.5079 14.9998 16.0429
7 3 16.1616 14.202 16.069
8 2 16.1231 13.4992 14.9858
9 3 15.4746 13.8443 14.0046
1 1 12.7664 16.9055 15.1069
ITEM: TIMESTEP
700
ITEM: NUMBER OF ATOMS
10
ITEM: BOX BOUNDS pp pp pp
0.0000000000000000e+00 3.0000000000000000e+01
0.0000000000000000e+00 3.0000000000000000e+01
0.0000000000000000e+00 3.0000000000000000e+01
ITEM: ATOMS id type x y z
10 1 16.7911 12.6017 15.2003
2 2 13.8572 16.5128 15.0051
3 3 14.4887 16.1101 16.0147
4 3 13.8334 15.8186 13.9063
5 1 14.4212 14.9689 14.0742
6 1 15.5274 14.9814 15.9812
7 3 16.1479 14.2378 16.0616
8 2 16.1544 13.4989 15.016
9 3 15.5252 13.825 13.9888
1 1 13.2066 17.4486 14.9406
ITEM: TIMESTEP
800
ITEM: NUMBER OF ATOMS
10
ITEM: BOX BOUNDS pp pp pp
0.0000000000000000e+00 3.0000000000000000e+01
0.0000000000000000e+00 3.0000000000000000e+01
0.0000000000000000e+00 3.0000000000000000e+01
ITEM: ATOMS id type x y z
10 1 17.2622 13.0986 14.8182
2 2 13.8861 16.5209 14.9671
3 3 14.4755 16.1617 15.9787
4 3 13.8274 15.7817 13.9223
5 1 14.5493 14.9999 14.0082
6 1 15.4255 14.8195 16.1477
7 3 16.1219 14.09 16.1286
8 2 16.2663 13.6268 14.9275
9 3 15.4242 13.8314 14.0657
1 1 13.3515 17.4779 14.7646
ITEM: TIMESTEP
900
ITEM: NUMBER OF ATOMS
10
ITEM: BOX BOUNDS pp pp pp
0.0000000000000000e+00 3.0000000000000000e+01
0.0000000000000000e+00 3.0000000000000000e+01
0.0000000000000000e+00 3.0000000000000000e+01
ITEM: ATOMS id type x y z
10 1 16.6144 12.4835 15.1743
2 2 13.803 16.4553 15.0368
3 3 14.5566 16.1732 15.9516
4 3 13.8142 15.8253 13.9468
5 1 14.3875 14.9898 13.9975
6 1 15.4121 15.0807 15.9574
7 3 16.1095 14.213 16.0876
8 2 16.1569 13.4891 15.0038
9 3 15.5846 13.841 13.9762
1 1 13.0431 17.284 14.9817
ITEM: TIMESTEP
1000
ITEM: NUMBER OF ATOMS
10
ITEM: BOX BOUNDS pp pp pp
0.0000000000000000e+00 3.0000000000000000e+01
0.0000000000000000e+00 3.0000000000000000e+01
0.0000000000000000e+00 3.0000000000000000e+01
ITEM: ATOMS id type x y z
10 1 16.7526 12.5175 15.0115
2 2 13.7581 16.3927 15.0284
3 3 14.5346 16.2387 15.9723
4 3 13.9121 15.8033 13.9314
5 1 14.7158 15.2139 13.957
6 1 15.575 15.1164 15.9315
7 3 16.178 14.2017 16.096
8 2 16.0722 13.4606 15.0038
9 3 15.512 13.8768 13.9795
1 1 12.8194 16.9949 15.0418
ITEM: TIMESTEP
1100
ITEM: NUMBER OF ATOMS
10
ITEM: BOX BOUNDS pp pp pp
0.0000000000000000e+00 3.0000000000000000e+01
0.0000000000000000e+00 3.0000000000000000e+01
0.0000000000000000e+00 3.0000000000000000e+01
ITEM: ATOMS id type x y z
10 1 16.9796 12.7582 14.9395
2 2 13.873 16.4981 15.0027
3 3 14.4667 16.0835 15.9861
4 3 13.8548 15.8617 13.8963
5 1 14.3001 14.9743 13.9756
6 1 15.2981 14.9236 15.9909
7 3 16.1556 14.2266 16.1207
8 2 16.2604 13.5944 14.9554
9 3 15.4247 13.7492 14.0362
1 1 13.3999 17.5049 14.9655
ITEM: TIMESTEP
1200
ITEM: NUMBER OF ATOMS
10
ITEM: BOX BOUNDS pp pp pp
0.0000000000000000e+00 3.0000000000000000e+01
0.0000000000000000e+00 3.0000000000000000e+01
0.0000000000000000e+00 3.0000000000000000e+01
ITEM: ATOMS id type x y z
10 1 17.0688 12.7722 14.794
2 2 13.8879 16.5464 14.9699
3 3 14.4016 16.1683 16.0111
4 3 13.8352 15.8032 13.9105
5 1 14.5497 15.0342 13.8864
6 1 15.5249 14.9397 16.0601
7 3 16.2079 14.1592 16.1206
8 2 16.2024 13.516 14.9608
9 3 15.4629 13.8093 14.0287
1 1 13.2562 17.4718 14.9558
ITEM: TIMESTEP
1300
ITEM: NUMBER OF ATOMS
10
ITEM: BOX BOUNDS pp pp pp
0.0000000000000000e+00 3.0000000000000000e+01
0.0000000000000000e+00 3.0000000000000000e+01
0.0000000000000000e+00 3.0000000000000000e+01
ITEM: ATOMS id type x y z
10 1 16.6352 12.5561 15.0462
2 2 13.7444 16.3682 15.0727
3 3 14.5745 16.2338 15.9609
4 3 13.8588 15.8364 13.8772
5 1 14.5438 14.9983 13.8721
6 1 15.5427 15.0488 16.0402
7 3 16.1284 14.1853 16.1182
8 2 16.1284 13.518 15.0076
9 3 15.5532 13.8437 13.9725
1 1 12.98 17.1848 15.2082
ITEM: TIMESTEP
1400
ITEM: NUMBER OF ATOMS
10
ITEM: BOX BOUNDS pp pp pp
0.0000000000000000e+00 3.0000000000000000e+01
0.0000000000000000e+00 3.0000000000000000e+01
0.0000000000000000e+00 3.0000000000000000e+01
ITEM: ATOMS id type x y z
10 1 16.7577 12.5963 14.959
2 2 13.8701 16.4845 14.988
3 3 14.5038 16.1911 16.0177
4 3 13.8151 15.7621 13.894
5 1 14.5564 15.0023 13.9844
6 1 15.4815 14.935 16.1014
7 3 16.1528 14.1716 16.1114
8 2 16.1269 13.5448 15.0053
9 3 15.5372 13.8646 13.9715
1 1 13.109 17.2939 15.1162
ITEM: TIMESTEP
1500
ITEM: NUMBER OF ATOMS
10
ITEM: BOX BOUNDS pp pp pp
0.0000000000000000e+00 3.0000000000000000e+01
0.0000000000000000e+00 3.0000000000000000e+01
0.0000000000000000e+00 3.0000000000000000e+01
ITEM: ATOMS id type x y z
10 1 17.1052 12.9829 14.8086
2 2 13.8394 16.4832 15.0113
3 3 14.4807 16.1745 16.0277
4 3 13.8283 15.8367 13.8521
5 1 14.4224 15.0397 14.0192
6 1 15.4652 14.9733 16.132
7 3 16.1436 14.143 16.1233
8 2 16.2336 13.6218 14.9626
9 3 15.4668 13.7356 14.0189
1 1 13.4259 17.5115 14.9983
ITEM: TIMESTEP
1600
ITEM: NUMBER OF ATOMS
10
ITEM: BOX BOUNDS pp pp pp
0.0000000000000000e+00 3.0000000000000000e+01
0.0000000000000000e+00 3.0000000000000000e+01
0.0000000000000000e+00 3.0000000000000000e+01
ITEM: ATOMS id type x y z
10 1 16.6562 12.5347 14.9676
2 2 13.8684 16.4516 15.0031
3 3 14.4799 16.1521 16.0462
4 3 13.8537 15.8076 13.8477
5 1 14.5579 15.0854 13.9868
6 1 15.47 15.0513 16.1357
7 3 16.2075 14.2209 16.1006
8 2 16.1082 13.5495 15.0099
9 3 15.4919 13.8258 13.9836
1 1 13.0786 17.2233 15.0975
ITEM: TIMESTEP
1700
ITEM: NUMBER OF ATOMS
10
ITEM: BOX BOUNDS pp pp pp
0.0000000000000000e+00 3.0000000000000000e+01
0.0000000000000000e+00 3.0000000000000000e+01
0.0000000000000000e+00 3.0000000000000000e+01
ITEM: ATOMS id type x y z
10 1 16.6803 12.578 14.9655
2 2 13.7629 16.3464 15.0635
3 3 14.5375 16.2467 16.0225
4 3 13.876 15.8705 13.8367
5 1 14.4993 15.0559 13.9188
6 1 15.5933 15.1508 16.0686
7 3 16.1734 14.1993 16.123
8 2 16.1117 13.5149 15.0079
9 3 15.5256 13.7962 13.9588
1 1 12.9456 17.086 15.1285
ITEM: TIMESTEP
1800
ITEM: NUMBER OF ATOMS
10
ITEM: BOX BOUNDS pp pp pp
0.0000000000000000e+00 3.0000000000000000e+01
0.0000000000000000e+00 3.0000000000000000e+01
0.0000000000000000e+00 3.0000000000000000e+01
ITEM: ATOMS id type x y z
10 1 16.9549 12.7064 14.8503
2 2 13.936 16.4968 14.9732
3 3 14.4592 16.1731 16.0408
4 3 13.7464 15.8124 13.8824
5 1 14.5081 15.0325 13.8266
6 1 15.4171 14.9315 16.2255
7 3 16.1552 14.1597 16.1578
8 2 16.2099 13.5708 14.9673
9 3 15.5144 13.7954 13.9749
1 1 13.3709 17.4744 14.9137
ITEM: TIMESTEP
1900
ITEM: NUMBER OF ATOMS
10
ITEM: BOX BOUNDS pp pp pp
0.0000000000000000e+00 3.0000000000000000e+01
0.0000000000000000e+00 3.0000000000000000e+01
0.0000000000000000e+00 3.0000000000000000e+01
ITEM: ATOMS id type x y z
10 1 17.0566 12.9215 14.7964
2 2 13.8952 16.4341 15.0022
3 3 14.5149 16.1971 16.0241
4 3 13.8141 15.7925 13.8666
5 1 14.3117 14.8275 13.9163
6 1 15.4753 14.9142 16.2261
7 3 16.1166 14.1358 16.1885
8 2 16.1954 13.6221 14.9387
9 3 15.4767 13.8291 13.9752
1 1 13.3186 17.397 14.8979
ITEM: TIMESTEP
2000
ITEM: NUMBER OF ATOMS
10
ITEM: BOX BOUNDS pp pp pp
0.0000000000000000e+00 3.0000000000000000e+01
0.0000000000000000e+00 3.0000000000000000e+01
0.0000000000000000e+00 3.0000000000000000e+01
ITEM: ATOMS id type x y z
10 1 16.5048 12.4817 15.1728
2 2 13.8016 16.3885 15.0483
3 3 14.5208 16.2359 16.0362
4 3 13.8255 15.847 13.8717
5 1 14.6025 15.1781 13.6921
6 1 15.5978 15.0386 16.0852
7 3 16.1994 14.2225 16.1385
8 2 16.0722 13.4933 15.0208
9 3 15.5714 13.7951 13.901
1 1 12.9496 17.1228 15.0555
ITEM: TIMESTEP
2100
ITEM: NUMBER OF ATOMS
10
ITEM: BOX BOUNDS pp pp pp
0.0000000000000000e+00 3.0000000000000000e+01
0.0000000000000000e+00 3.0000000000000000e+01
0.0000000000000000e+00 3.0000000000000000e+01
ITEM: ATOMS id type x y z
10 1 16.8476 12.6417 15.0376
2 2 13.827 16.4208 15.0126
3 3 14.4722 16.2013 16.0397
4 3 13.8806 15.8542 13.8456
5 1 14.3751 14.9809 13.8188
6 1 15.5086 14.9938 16.1227
7 3 16.2419 14.1759 16.1514
8 2 16.1357 13.5603 14.9752
9 3 15.452 13.7986 13.974
1 1 12.9816 17.1415 14.991
ITEM: TIMESTEP
2200
ITEM: NUMBER OF ATOMS
10
ITEM: BOX BOUNDS pp pp pp
0.0000000000000000e+00 3.0000000000000000e+01
0.0000000000000000e+00 3.0000000000000000e+01
0.0000000000000000e+00 3.0000000000000000e+01
ITEM: ATOMS id type x y z
10 1 17.0654 12.9776 14.9971
2 2 13.9191 16.4679 15.0069
3 3 14.459 16.1 16.049
4 3 13.8176 15.8381 13.8489
5 1 14.4301 15.0893 13.7238
6 1 15.4823 15.0323 16.2044
7 3 16.1812 14.2055 16.1455
8 2 16.1783 13.6334 14.9716
9 3 15.4361 13.7424 13.9847
1 1 13.5552 17.5133 14.8797
ITEM: TIMESTEP
2300
ITEM: NUMBER OF ATOMS
10
ITEM: BOX BOUNDS pp pp pp
0.0000000000000000e+00 3.0000000000000000e+01
0.0000000000000000e+00 3.0000000000000000e+01
0.0000000000000000e+00 3.0000000000000000e+01
ITEM: ATOMS id type x y z
10 1 16.861 12.6632 15.1121
2 2 13.8372 16.4849 15.0134
3 3 14.4842 16.2742 16.0522
4 3 13.8382 15.7706 13.866
5 1 14.4058 14.9387 13.8613
6 1 15.5496 14.8896 16.2728
7 3 16.1859 14.1204 16.1395
8 2 16.1375 13.5532 14.9671
9 3 15.5238 13.8263 13.9421
1 1 12.9863 17.1991 14.9836
ITEM: TIMESTEP
2400
ITEM: NUMBER OF ATOMS
10
ITEM: BOX BOUNDS pp pp pp
0.0000000000000000e+00 3.0000000000000000e+01
0.0000000000000000e+00 3.0000000000000000e+01
0.0000000000000000e+00 3.0000000000000000e+01
ITEM: ATOMS id type x y z
10 1 16.609 12.5986 15.2217
2 2 13.7772 16.3659 15.074
3 3 14.6089 16.2316 16.0014
4 3 13.7815 15.828 13.8285
5 1 14.5345 15.0954 13.7684
6 1 15.6426 15.0108 16.1672
7 3 16.1328 14.1608 16.1661
8 2 16.1017 13.5396 15.007
9 3 15.5839 13.859 13.9265
1 1 12.966 17.1695 15.1021
ITEM: TIMESTEP
2500
ITEM: NUMBER OF ATOMS
10
ITEM: BOX BOUNDS pp pp pp
0.0000000000000000e+00 3.0000000000000000e+01
0.0000000000000000e+00 3.0000000000000000e+01
0.0000000000000000e+00 3.0000000000000000e+01
ITEM: ATOMS id type x y z
10 1 17.0376 12.8416 14.991
2 2 13.9126 16.4831 14.9925
3 3 14.4611 16.1779 16.0642
4 3 13.8012 15.7895 13.8416
5 1 14.4636 14.9701 13.9128
6 1 15.5087 14.8918 16.2302
7 3 16.1893 14.1543 16.1607
8 2 16.1714 13.5683 14.9571
9 3 15.4682 13.8338 13.9712
1 1 13.273 17.4003 14.862
ITEM: TIMESTEP
2600
ITEM: NUMBER OF ATOMS
10
ITEM: BOX BOUNDS pp pp pp
0.0000000000000000e+00 3.0000000000000000e+01
0.0000000000000000e+00 3.0000000000000000e+01
0.0000000000000000e+00 3.0000000000000000e+01
ITEM: ATOMS id type x y z
10 1 17.0609 12.8479 15.026
2 2 13.8644 16.4589 15.025
3 3 14.4606 16.1635 16.0794
4 3 13.8561 15.8654 13.8356
5 1 14.4168 15.0338 13.9083
6 1 15.4572 15.0376 16.1064
7 3 16.1523 14.2033 16.1417
8 2 16.2339 13.6005 14.9373
9 3 15.4466 13.7045 13.9728
1 1 13.242 17.3866 14.935
ITEM: TIMESTEP
2700
ITEM: NUMBER OF ATOMS
10
ITEM: BOX BOUNDS pp pp pp
0.0000000000000000e+00 3.0000000000000000e+01
0.0000000000000000e+00 3.0000000000000000e+01
0.0000000000000000e+00 3.0000000000000000e+01
ITEM: ATOMS id type x y z
10 1 16.6121 12.5242 15.1143
2 2 13.8197 16.3852 15.0267
3 3 14.5007 16.1913 16.0462
4 3 13.8674 15.8143 13.8383
5 1 14.5993 15.1371 13.8838
6 1 15.5705 15.0489 16.0991
7 3 16.2478 14.225 16.1277
8 2 16.0406 13.49 15.0142
9 3 15.5021 13.8717 13.9497
1 1 13.0191 17.1628 15.0144
ITEM: TIMESTEP
2800
ITEM: NUMBER OF ATOMS
10
ITEM: BOX BOUNDS pp pp pp
0.0000000000000000e+00 3.0000000000000000e+01
0.0000000000000000e+00 3.0000000000000000e+01
0.0000000000000000e+00 3.0000000000000000e+01
ITEM: ATOMS id type x y z
10 1 16.9111 12.6478 15.0203
2 2 13.8048 16.4285 15.0324
3 3 14.5441 16.2146 16.0007
4 3 13.8144 15.8603 13.8561
5 1 14.3785 15.0167 13.876
6 1 15.501 14.9645 16.1171
7 3 16.1301 14.1617 16.1681
8 2 16.2264 13.5455 14.9638
9 3 15.5025 13.7951 13.9698
1 1 12.9872 17.1867 15.1103
ITEM: TIMESTEP
2900
ITEM: NUMBER OF ATOMS
10
ITEM: BOX BOUNDS pp pp pp
0.0000000000000000e+00 3.0000000000000000e+01
0.0000000000000000e+00 3.0000000000000000e+01
0.0000000000000000e+00 3.0000000000000000e+01
ITEM: ATOMS id type x y z
10 1 17.036 12.8222 14.9014
2 2 13.9397 16.5069 14.9732
3 3 14.4429 16.1831 16.0371
4 3 13.7662 15.7656 13.9218
5 1 14.4563 14.9889 13.8371
6 1 15.4504 14.9004 16.1463
7 3 16.1421 14.1709 16.1535
8 2 16.1931 13.5336 14.9522
9 3 15.5182 13.8335 13.9613
1 1 13.5575 17.5577 14.8279
ITEM: TIMESTEP
3000
ITEM: NUMBER OF ATOMS
10
ITEM: BOX BOUNDS pp pp pp
0.0000000000000000e+00 3.0000000000000000e+01
0.0000000000000000e+00 3.0000000000000000e+01
0.0000000000000000e+00 3.0000000000000000e+01
ITEM: ATOMS id type x y z
10 1 16.9154 12.6835 14.9777
2 2 13.8039 16.402 15.0352
3 3 14.5519 16.1959 15.9887
4 3 13.8789 15.835 13.8741
5 1 14.45 14.9565 13.8996
6 1 15.4935 15.027 16.0756
7 3 16.1095 14.1786 16.1485
8 2 16.2004 13.5821 14.9714
9 3 15.4673 13.8153 13.9764
1 1 12.9762 17.1372 15.159
ITEM: TIMESTEP
3100
ITEM: NUMBER OF ATOMS
10
ITEM: BOX BOUNDS pp pp pp
0.0000000000000000e+00 3.0000000000000000e+01
0.0000000000000000e+00 3.0000000000000000e+01
0.0000000000000000e+00 3.0000000000000000e+01
ITEM: ATOMS id type x y z
10 1 16.4743 12.4414 15.1669
2 2 13.7835 16.465 15.022
3 3 14.453 16.1728 16.0148
4 3 13.8578 15.8373 13.8736
5 1 14.5945 15.1907 13.9111
6 1 15.5647 15.0117 16.0379
7 3 16.2749 14.2167 16.079
8 2 16.0488 13.4527 15.0382
9 3 15.5603 13.8386 13.9718
1 1 13.0582 17.3082 15.1244
ITEM: TIMESTEP
3200
ITEM: NUMBER OF ATOMS
10
ITEM: BOX BOUNDS pp pp pp
0.0000000000000000e+00 3.0000000000000000e+01
0.0000000000000000e+00 3.0000000000000000e+01
0.0000000000000000e+00 3.0000000000000000e+01
ITEM: ATOMS id type x y z
10 1 17.1773 12.9091 14.8434
2 2 13.8066 16.4923 15.008
3 3 14.4548 16.1504 16.0059
4 3 13.9052 15.8511 13.8632
5 1 14.4657 15.0014 14.0317
6 1 15.5634 14.9663 16.0179
7 3 16.1634 14.1545 16.1021
8 2 16.2492 13.6098 14.9482
9 3 15.4094 13.7499 14.0604
1 1 13.2047 17.4093 15.1211
ITEM: TIMESTEP
3300
ITEM: NUMBER OF ATOMS
10
ITEM: BOX BOUNDS pp pp pp
0.0000000000000000e+00 3.0000000000000000e+01
0.0000000000000000e+00 3.0000000000000000e+01
0.0000000000000000e+00 3.0000000000000000e+01
ITEM: ATOMS id type x y z
10 1 16.9606 12.781 14.9762
2 2 13.9264 16.54 14.9809
3 3 14.4687 16.1102 16.0043
4 3 13.8095 15.7843 13.91
5 1 14.4754 14.9513 14.0543
6 1 15.3004 14.7987 16.0735
7 3 16.1204 14.2099 16.0848
8 2 16.2148 13.5719 14.9888
9 3 15.4875 13.8075 14.0102
1 1 13.3975 17.543 15.1048
ITEM: TIMESTEP
3400
ITEM: NUMBER OF ATOMS
10
ITEM: BOX BOUNDS pp pp pp
0.0000000000000000e+00 3.0000000000000000e+01
0.0000000000000000e+00 3.0000000000000000e+01
0.0000000000000000e+00 3.0000000000000000e+01
ITEM: ATOMS id type x y z
10 1 16.6906 12.4666 14.9621
2 2 13.7113 16.4189 15.0474
3 3 14.5439 16.3043 15.9483
4 3 13.8494 15.7904 13.9144
5 1 14.6791 15.0717 14.0095
6 1 15.7818 15.0369 15.9655
7 3 16.1428 14.1177 16.1036
8 2 16.1186 13.4562 14.9936
9 3 15.5859 13.8952 13.9961
1 1 12.9486 17.2146 15.166
ITEM: TIMESTEP
3500
ITEM: NUMBER OF ATOMS
10
ITEM: BOX BOUNDS pp pp pp
0.0000000000000000e+00 3.0000000000000000e+01
0.0000000000000000e+00 3.0000000000000000e+01
0.0000000000000000e+00 3.0000000000000000e+01
ITEM: ATOMS id type x y z
10 1 16.8326 12.6039 14.9743
2 2 13.793 16.4479 15.0306
3 3 14.561 16.1773 15.9294
4 3 13.8175 15.8552 13.9062
5 1 14.4911 15.0963 13.934
6 1 15.2751 14.872 16.0834
7 3 16.1071 14.1729 16.0996
8 2 16.1987 13.5117 15.001
9 3 15.5504 13.8433 14.0245
1 1 12.9371 17.1454 15.2649
ITEM: TIMESTEP
3600
ITEM: NUMBER OF ATOMS
10
ITEM: BOX BOUNDS pp pp pp
0.0000000000000000e+00 3.0000000000000000e+01
0.0000000000000000e+00 3.0000000000000000e+01
0.0000000000000000e+00 3.0000000000000000e+01
ITEM: ATOMS id type x y z
10 1 17.0057 12.7675 14.7691
2 2 13.9533 16.5074 14.9457
3 3 14.3526 16.1171 16.0365
4 3 13.8534 15.7872 13.9357
5 1 14.4668 14.9416 14.0939
6 1 15.5602 15.045 16.0187
7 3 16.1744 14.1868 16.0759
8 2 16.2166 13.5657 14.9552
9 3 15.4438 13.834 14.0448
1 1 13.7415 17.5704 14.8208
ITEM: TIMESTEP
3700
ITEM: NUMBER OF ATOMS
10
ITEM: BOX BOUNDS pp pp pp
0.0000000000000000e+00 3.0000000000000000e+01
0.0000000000000000e+00 3.0000000000000000e+01
0.0000000000000000e+00 3.0000000000000000e+01
ITEM: ATOMS id type x y z
10 1 17.0733 12.8084 14.8952
2 2 13.7621 16.422 15.0392
3 3 14.4973 16.1786 15.9893
4 3 13.906 15.9561 13.8814
5 1 14.6014 15.1344 13.9447
6 1 15.3731 14.8513 15.9925
7 3 16.1309 14.213 16.0764
8 2 16.248 13.5403 14.976
9 3 15.4645 13.687 14.0399
1 1 12.8619 17.1119 15.1885
ITEM: TIMESTEP
3800
ITEM: NUMBER OF ATOMS
10
ITEM: BOX BOUNDS pp pp pp
0.0000000000000000e+00 3.0000000000000000e+01
0.0000000000000000e+00 3.0000000000000000e+01
0.0000000000000000e+00 3.0000000000000000e+01
ITEM: ATOMS id type x y z
10 1 16.2547 12.3671 15.1249
2 2 13.8027 16.465 15.0066
3 3 14.4592 16.1523 15.9898
4 3 13.8338 15.8337 13.8898
5 1 14.5098 15.0465 13.9496
6 1 15.7259 15.0676 15.9011
7 3 16.272 14.1949 16.0784
8 2 16.0415 13.4478 15.0518
9 3 15.579 13.8971 13.9964
1 1 13.0899 17.3275 15.0463
ITEM: TIMESTEP
3900
ITEM: NUMBER OF ATOMS
10
ITEM: BOX BOUNDS pp pp pp
0.0000000000000000e+00 3.0000000000000000e+01
0.0000000000000000e+00 3.0000000000000000e+01
0.0000000000000000e+00 3.0000000000000000e+01
ITEM: ATOMS id type x y z
10 1 17.1742 12.9757 14.8032
2 2 13.802 16.4595 15.0369
3 3 14.5612 16.1959 15.962
4 3 13.8513 15.8118 13.896
5 1 14.5505 15.0505 13.8608
6 1 15.3547 14.9117 16.0496
7 3 16.0819 14.1274 16.1329
8 2 16.2295 13.6125 14.9595
9 3 15.4717 13.7945 14.0231
1 1 13.0924 17.3317 15.1022
ITEM: TIMESTEP
4000
ITEM: NUMBER OF ATOMS
10
ITEM: BOX BOUNDS pp pp pp
0.0000000000000000e+00 3.0000000000000000e+01
0.0000000000000000e+00 3.0000000000000000e+01
0.0000000000000000e+00 3.0000000000000000e+01
ITEM: ATOMS id type x y z
10 1 16.8773 12.6931 14.9729
2 2 13.9238 16.5677 14.9841
3 3 14.4495 16.1815 16.0327
4 3 13.7847 15.7522 13.9362
5 1 14.3119 14.8408 14.0461
6 1 15.4121 14.9345 16.0752
7 3 16.1234 14.1649 16.1037
8 2 16.2076 13.5573 14.9641
9 3 15.5428 13.8054 13.9661
1 1 13.4245 17.5752 14.9041
ITEM: TIMESTEP
4100
ITEM: NUMBER OF ATOMS
10
ITEM: BOX BOUNDS pp pp pp
0.0000000000000000e+00 3.0000000000000000e+01
0.0000000000000000e+00 3.0000000000000000e+01
0.0000000000000000e+00 3.0000000000000000e+01
ITEM: ATOMS id type x y z
10 1 16.8187 12.622 14.9687
2 2 13.7476 16.4114 15.051
3 3 14.5485 16.1988 15.9808
4 3 13.8804 15.8401 13.8543
5 1 14.6688 15.1194 13.9058
6 1 15.5555 14.9835 16.0567
7 3 16.185 14.1692 16.1188
8 2 16.1174 13.5226 15.0055
9 3 15.4894 13.8479 14.0016
1 1 12.9346 17.1825 15.0979
ITEM: TIMESTEP
4200
ITEM: NUMBER OF ATOMS
10
ITEM: BOX BOUNDS pp pp pp
0.0000000000000000e+00 3.0000000000000000e+01
0.0000000000000000e+00 3.0000000000000000e+01
0.0000000000000000e+00 3.0000000000000000e+01
ITEM: ATOMS id type x y z
10 1 16.6838 12.5866 15.0636
2 2 13.8074 16.4615 15.0319
3 3 14.4942 16.136 16.0182
4 3 13.8713 15.8618 13.8549
5 1 14.5078 15.0137 13.9532
6 1 15.5648 15.0149 16.0238
7 3 16.2006 14.2183 16.1018
8 2 16.1457 13.5287 15.0038
9 3 15.4849 13.7996 13.9935
1 1 13.0019 17.2608 15.0293
ITEM: TIMESTEP
4300
ITEM: NUMBER OF ATOMS
10
ITEM: BOX BOUNDS pp pp pp
0.0000000000000000e+00 3.0000000000000000e+01
0.0000000000000000e+00 3.0000000000000000e+01
0.0000000000000000e+00 3.0000000000000000e+01
ITEM: ATOMS id type x y z
10 1 17.0552 12.8112 14.8535
2 2 13.8935 16.519 14.9923
3 3 14.4116 16.1841 16.073
4 3 13.8642 15.79 13.895
5 1 14.4825 14.9784 13.9577
6 1 15.4338 14.8915 16.138
7 3 16.1791 14.1775 16.1062
8 2 16.1966 13.5685 14.9498
9 3 15.4571 13.774 13.9867
1 1 13.3602 17.4666 14.7691
ITEM: TIMESTEP
4400
ITEM: NUMBER OF ATOMS
10
ITEM: BOX BOUNDS pp pp pp
0.0000000000000000e+00 3.0000000000000000e+01
0.0000000000000000e+00 3.0000000000000000e+01
0.0000000000000000e+00 3.0000000000000000e+01
ITEM: ATOMS id type x y z
10 1 16.9149 12.7605 14.9731
2 2 13.8313 16.4221 15.0375
3 3 14.5829 16.1643 15.9939
4 3 13.7953 15.8405 13.8653
5 1 14.4189 15.0945 13.8206
6 1 15.5266 15.0271 16.1164
7 3 16.0996 14.1744 16.1532
8 2 16.1901 13.5792 14.9886
9 3 15.5091 13.8099 13.9765
1 1 13.1032 17.2826 14.9524
ITEM: TIMESTEP
4500
ITEM: NUMBER OF ATOMS
10
ITEM: BOX BOUNDS pp pp pp
0.0000000000000000e+00 3.0000000000000000e+01
0.0000000000000000e+00 3.0000000000000000e+01
0.0000000000000000e+00 3.0000000000000000e+01
ITEM: ATOMS id type x y z
10 1 16.4794 12.3999 15.0233
2 2 13.8096 16.4533 15.0098
3 3 14.5208 16.2682 16.0095
4 3 13.786 15.7918 13.8675
5 1 14.3936 15.0515 13.8178
6 1 15.6246 14.9135 16.2344
7 3 16.237 14.1184 16.1546
8 2 16.0656 13.4779 15.0033
9 3 15.586 13.9074 13.959
1 1 12.938 17.1014 14.9119
ITEM: TIMESTEP
4600
ITEM: NUMBER OF ATOMS
10
ITEM: BOX BOUNDS pp pp pp
0.0000000000000000e+00 3.0000000000000000e+01
0.0000000000000000e+00 3.0000000000000000e+01
0.0000000000000000e+00 3.0000000000000000e+01
ITEM: ATOMS id type x y z
10 1 17.0867 12.9269 14.9039
2 2 13.8078 16.4329 15.0608
3 3 14.5276 16.1871 16.0501
4 3 13.83 15.898 13.833
5 1 14.4489 15.0987 13.7013
6 1 15.5484 15.0064 16.1138
7 3 16.1211 14.1893 16.1587
8 2 16.2244 13.5934 14.9607
9 3 15.4855 13.6844 13.9658
1 1 13.1102 17.3177 14.8989
ITEM: TIMESTEP
4700
ITEM: NUMBER OF ATOMS
10
ITEM: BOX BOUNDS pp pp pp
0.0000000000000000e+00 3.0000000000000000e+01
0.0000000000000000e+00 3.0000000000000000e+01
0.0000000000000000e+00 3.0000000000000000e+01
ITEM: ATOMS id type x y z
10 1 16.8924 12.7541 14.8686
2 2 13.9735 16.4827 14.9764
3 3 14.3631 16.1375 16.1228
4 3 13.8624 15.7841 13.8356
5 1 14.4187 14.9037 13.869
6 1 15.4918 14.8469 16.1753
7 3 16.2659 14.2098 16.1513
8 2 16.1446 13.6039 14.9488
9 3 15.4048 13.8089 13.9708
1 1 13.4468 17.4195 14.6953
ITEM: TIMESTEP
4800
ITEM: NUMBER OF ATOMS
10
ITEM: BOX BOUNDS pp pp pp
0.0000000000000000e+00 3.0000000000000000e+01
0.0000000000000000e+00 3.0000000000000000e+01
0.0000000000000000e+00 3.0000000000000000e+01
ITEM: ATOMS id type x y z
10 1 16.8035 12.6487 15.0766
2 2 13.7581 16.3829 15.0821
3 3 14.5433 16.1961 16.0321
4 3 13.8207 15.9406 13.7871
5 1 14.4841 15.191 13.7573
6 1 15.651 15.0706 15.999
7 3 16.2021 14.1862 16.1807
8 2 16.1404 13.5348 15.0102
9 3 15.5212 13.7392 13.9388
1 1 12.8948 17.0927 15.0341
ITEM: TIMESTEP
4900
ITEM: NUMBER OF ATOMS
10
ITEM: BOX BOUNDS pp pp pp
0.0000000000000000e+00 3.0000000000000000e+01
0.0000000000000000e+00 3.0000000000000000e+01
0.0000000000000000e+00 3.0000000000000000e+01
ITEM: ATOMS id type x y z
10 1 16.5806 12.5149 15.1058
2 2 13.8202 16.473 15.0353
3 3 14.5241 16.23 16.0473
4 3 13.7708 15.8067 13.8325
5 1 14.5133 15.0593 13.8458
6 1 15.5244 14.8821 16.23
7 3 16.2156 14.156 16.1649
8 2 16.0816 13.5183 15.0022
9 3 15.5867 13.8309 13.9176
1 1 13.0177 17.2813 14.964
ITEM: TIMESTEP
5000
ITEM: NUMBER OF ATOMS
10
ITEM: BOX BOUNDS pp pp pp
0.0000000000000000e+00 3.0000000000000000e+01
0.0000000000000000e+00 3.0000000000000000e+01
0.0000000000000000e+00 3.0000000000000000e+01
ITEM: ATOMS id type x y z
10 1 17.0928 12.9973 14.8843
2 2 13.8966 16.4821 15.0161
3 3 14.5335 16.1908 16.0578
4 3 13.8041 15.7733 13.8396
5 1 14.3477 14.9112 13.8658
6 1 15.542 14.9925 16.3081
7 3 16.0975 14.1265 16.1831
8 2 16.204 13.6739 14.9404
9 3 15.4723 13.7717 13.9537
1 1 13.2975 17.4359 14.9133
ITEM: TIMESTEP
5100
ITEM: NUMBER OF ATOMS
10
ITEM: BOX BOUNDS pp pp pp
0.0000000000000000e+00 3.0000000000000000e+01
0.0000000000000000e+00 3.0000000000000000e+01
0.0000000000000000e+00 3.0000000000000000e+01
ITEM: ATOMS id type x y z
10 1 16.9156 12.7127 14.9924
2 2 13.8663 16.4962 15.0305
3 3 14.4686 16.1869 16.0546
4 3 13.7872 15.8249 13.8379
5 1 14.4749 15.0561 13.7747
6 1 15.5115 14.9439 16.259
7 3 16.2034 14.1867 16.1458
8 2 16.1441 13.5315 14.9842
9 3 15.5232 13.7718 13.952
1 1 13.2625 17.4378 14.9483
ITEM: TIMESTEP
5200
ITEM: NUMBER OF ATOMS
10
ITEM: BOX BOUNDS pp pp pp
0.0000000000000000e+00 3.0000000000000000e+01
0.0000000000000000e+00 3.0000000000000000e+01
0.0000000000000000e+00 3.0000000000000000e+01
ITEM: ATOMS id type x y z
10 1 16.5725 12.5123 15.0809
2 2 13.7835 16.3885 15.0287
3 3 14.4796 16.2243 16.0385
4 3 13.8855 15.8766 13.8173
5 1 14.4527 14.9801 13.7877
6 1 15.706 15.0207 16.1495
7 3 16.2649 14.1635 16.1321
8 2 16.1188 13.5266 14.9998
9 3 15.4693 13.8247 13.9866
1 1 12.865 17.0925 15.0415
ITEM: TIMESTEP
5300
ITEM: NUMBER OF ATOMS
10
ITEM: BOX BOUNDS pp pp pp
0.0000000000000000e+00 3.0000000000000000e+01
0.0000000000000000e+00 3.0000000000000000e+01
0.0000000000000000e+00 3.0000000000000000e+01
ITEM: ATOMS id type x y z
10 1 16.9572 12.8059 15.0188
2 2 13.8715 16.4212 15.018
3 3 14.4954 16.1415 16.0506
4 3 13.8351 15.8693 13.8462
5 1 14.5889 15.161 13.7713
6 1 15.4434 14.9695 16.0736
7 3 16.1793 14.227 16.1187
8 2 16.134 13.5655 15.0044
9 3 15.4753 13.758 13.9757
1 1 13.1909 17.2981 15.0035
ITEM: TIMESTEP
5400
ITEM: NUMBER OF ATOMS
10
ITEM: BOX BOUNDS pp pp pp
0.0000000000000000e+00 3.0000000000000000e+01
0.0000000000000000e+00 3.0000000000000000e+01
0.0000000000000000e+00 3.0000000000000000e+01
ITEM: ATOMS id type x y z
10 1 16.9397 12.737 14.9365
2 2 13.9065 16.469 14.976
3 3 14.4257 16.2438 16.0771
4 3 13.8223 15.7792 13.8778
5 1 14.2992 14.8994 14.0121
6 1 15.5405 14.9277 16.1022
7 3 16.1757 14.1152 16.143
8 2 16.2104 13.5923 14.9533
9 3 15.479 13.8142 13.963
1 1 13.3818 17.4694 14.8215
ITEM: TIMESTEP
5500
ITEM: NUMBER OF ATOMS
10
ITEM: BOX BOUNDS pp pp pp
0.0000000000000000e+00 3.0000000000000000e+01
0.0000000000000000e+00 3.0000000000000000e+01
0.0000000000000000e+00 3.0000000000000000e+01
ITEM: ATOMS id type x y z
10 1 16.9181 12.7326 15.0367
2 2 13.8284 16.4027 15.0402
3 3 14.5961 16.2102 15.985
4 3 13.756 15.8492 13.8573
5 1 14.5473 15.1969 13.732
6 1 15.4499 14.9488 16.1024
7 3 16.1053 14.1627 16.1605
8 2 16.1507 13.5436 15.0037
9 3 15.5632 13.8175 13.9593
1 1 13.0184 17.1397 15.2022
ITEM: TIMESTEP
5600
ITEM: NUMBER OF ATOMS
10
ITEM: BOX BOUNDS pp pp pp
0.0000000000000000e+00 3.0000000000000000e+01
0.0000000000000000e+00 3.0000000000000000e+01
0.0000000000000000e+00 3.0000000000000000e+01
ITEM: ATOMS id type x y z
10 1 16.5027 12.4786 15.0384
2 2 13.8295 16.4144 15.011
3 3 14.4818 16.2328 16.0286
4 3 13.8366 15.7797 13.8643
5 1 14.429 14.9055 13.8788
6 1 15.725 15.0387 16.2088
7 3 16.224 14.1526 16.1221
8 2 16.0805 13.5162 14.9981
9 3 15.5355 13.9011 13.9691
1 1 13.1888 17.3625 15.0142
ITEM: TIMESTEP
5700
ITEM: NUMBER OF ATOMS
10
ITEM: BOX BOUNDS pp pp pp
0.0000000000000000e+00 3.0000000000000000e+01
0.0000000000000000e+00 3.0000000000000000e+01
0.0000000000000000e+00 3.0000000000000000e+01
ITEM: ATOMS id type x y z
10 1 17.1424 12.9754 14.882
2 2 13.8665 16.4842 15.0342
3 3 14.4354 16.1544 16.0458
4 3 13.8702 15.9206 13.8394
5 1 14.5473 15.1347 13.7939
6 1 15.5311 15.0353 16.2501
7 3 16.1544 14.2033 16.097
8 2 16.2353 13.6131 14.9475
9 3 15.4434 13.6216 14.0249
1 1 13.1071 17.2913 15.173
ITEM: TIMESTEP
5800
ITEM: NUMBER OF ATOMS
10
ITEM: BOX BOUNDS pp pp pp
0.0000000000000000e+00 3.0000000000000000e+01
0.0000000000000000e+00 3.0000000000000000e+01
0.0000000000000000e+00 3.0000000000000000e+01
ITEM: ATOMS id type x y z
10 1 16.9818 12.7288 14.9139